Automatically generated file for job FeO42-
SP        Unrestrictedaug-cc-pvdz
Number of atoms                            I                5
Charge                                     I               -2
Number of electrons                        I               60
Number of alpha electrons                  I               31
Number of beta electrons                   I               29
Number of basis functions                  I              151
Number of independent functions            I              151
Atomic numbers                             I   N=           5
           8           8           8           8          26
Nuclear charges                            R   N=           5
  8.00000000E+00  8.00000000E+00  8.00000000E+00  8.00000000E+00  2.60000000E+01
Current cartesian coordinates              R   N=          15
  0.00000000E+00  2.58468802E+00  1.82716107E+00  0.00000000E+00 -2.58468802E+00
  1.82716107E+00 -2.58492613E+00  0.00000000E+00 -1.82709871E+00  2.58492613E+00
  0.00000000E+00 -1.82709871E+00  0.00000000E+00  0.00000000E+00 -3.77945225E-05
Force Field
Int Atom Types
MM charges
Atom fragment info
Atom residue num
Nuclear spins
Nuclear QMom
Nuclear GFac
MicOpt
SymInf integers
RotTr to input orientation
Nuclear ZEff
Nuclear ZNuc
Integer atomic weights
Real atomic weights
Number of contracted shells                I               55
Number of primitive shells                 I              278
Pure/Cartesian d shells                    I                1
Pure/Cartesian f shells                    I                1
Highest angular momentum                   I                3
Largest degree of contraction              I               19
Shell types                                I   N=          55
           0           0           0           0           1           1
           1          -2          -2           0           0           0
           0           1           1           1          -2          -2
           0           0           0           0           1           1
           1          -2          -2           0           0           0
           0           1           1           1          -2          -2
           0           0           0           0           0           0
           0           1           1           1           1           1
           1          -2          -2          -2          -2          -3
          -3
Number of primitives per shell             I   N=          55
           8           8           1           1           3           1
           1           1           1           8           8           1
           1           3           1           1           1           1
           8           8           1           1           3           1
           1           1           1           8           8           1
           1           3           1           1           1           1
          19          19          19          19          19           1
           1          15          15          15          15           1
           1           7           7           1           1           2
           1
Shell to atom map                          I   N=          55
           1           1           1           1           1           1
           1           1           1           2           2           2
           2           2           2           2           2           2
           3           3           3           3           3           3
           3           3           3           4           4           4
           4           4           4           4           4           4
           5           5           5           5           5           5
           5           5           5           5           5           5
           5           5           5           5           5           5
           5
Primitive exponents                        R   N=         278
  1.17200000E+04  1.75900000E+03  4.00800000E+02  1.13700000E+02  3.70300000E+01
  1.32700000E+01  5.02500000E+00  1.01300000E+00  1.17200000E+04  1.75900000E+03
  4.00800000E+02  1.13700000E+02  3.70300000E+01  1.32700000E+01  5.02500000E+00
  1.01300000E+00  3.02300000E-01  7.89600000E-02  1.77000000E+01  3.85400000E+00
  1.04600000E+00  2.75300000E-01  6.85600000E-02  1.18500000E+00  3.32000000E-01
  1.17200000E+04  1.75900000E+03  4.00800000E+02  1.13700000E+02  3.70300000E+01
  1.32700000E+01  5.02500000E+00  1.01300000E+00  1.17200000E+04  1.75900000E+03
  4.00800000E+02  1.13700000E+02  3.70300000E+01  1.32700000E+01  5.02500000E+00
  1.01300000E+00  3.02300000E-01  7.89600000E-02  1.77000000E+01  3.85400000E+00
  1.04600000E+00  2.75300000E-01  6.85600000E-02  1.18500000E+00  3.32000000E-01
  1.17200000E+04  1.75900000E+03  4.00800000E+02  1.13700000E+02  3.70300000E+01
  1.32700000E+01  5.02500000E+00  1.01300000E+00  1.17200000E+04  1.75900000E+03
  4.00800000E+02  1.13700000E+02  3.70300000E+01  1.32700000E+01  5.02500000E+00
  1.01300000E+00  3.02300000E-01  7.89600000E-02  1.77000000E+01  3.85400000E+00
  1.04600000E+00  2.75300000E-01  6.85600000E-02  1.18500000E+00  3.32000000E-01
  1.17200000E+04  1.75900000E+03  4.00800000E+02  1.13700000E+02  3.70300000E+01
  1.32700000E+01  5.02500000E+00  1.01300000E+00  1.17200000E+04  1.75900000E+03
  4.00800000E+02  1.13700000E+02  3.70300000E+01  1.32700000E+01  5.02500000E+00
  1.01300000E+00  3.02300000E-01  7.89600000E-02  1.77000000E+01  3.85400000E+00
  1.04600000E+00  2.75300000E-01  6.85600000E-02  1.18500000E+00  3.32000000E-01
  4.31626500E+06  6.46342400E+05  1.47089700E+05  4.16615200E+04  1.35907700E+04
  4.90575000E+03  1.91274600E+03  7.92604300E+02  3.44806500E+02  1.55899900E+02
  7.22309100E+01  3.27250600E+01  1.56676200E+01  7.50348300E+00  3.31222300E+00
  1.55847100E+00  6.83914000E-01  1.46757000E-01  7.05830000E-02  4.31626500E+06
  6.46342400E+05  1.47089700E+05  4.16615200E+04  1.35907700E+04  4.90575000E+03
  1.91274600E+03  7.92604300E+02  3.44806500E+02  1.55899900E+02  7.22309100E+01
  3.27250600E+01  1.56676200E+01  7.50348300E+00  3.31222300E+00  1.55847100E+00
  6.83914000E-01  1.46757000E-01  7.05830000E-02  4.31626500E+06  6.46342400E+05
  1.47089700E+05  4.16615200E+04  1.35907700E+04  4.90575000E+03  1.91274600E+03
  7.92604300E+02  3.44806500E+02  1.55899900E+02  7.22309100E+01  3.27250600E+01
  1.56676200E+01  7.50348300E+00  3.31222300E+00  1.55847100E+00  6.83914000E-01
  1.46757000E-01  7.05830000E-02  4.31626500E+06  6.46342400E+05  1.47089700E+05
  4.16615200E+04  1.35907700E+04  4.90575000E+03  1.91274600E+03  7.92604300E+02
  3.44806500E+02  1.55899900E+02  7.22309100E+01  3.27250600E+01  1.56676200E+01
  7.50348300E+00  3.31222300E+00  1.55847100E+00  6.83914000E-01  1.46757000E-01
  7.05830000E-02  4.31626500E+06  6.46342400E+05  1.47089700E+05  4.16615200E+04
  1.35907700E+04  4.90575000E+03  1.91274600E+03  7.92604300E+02  3.44806500E+02
  1.55899900E+02  7.22309100E+01  3.27250600E+01  1.56676200E+01  7.50348300E+00
  3.31222300E+00  1.55847100E+00  6.83914000E-01  1.46757000E-01  7.05830000E-02
  3.14490000E-02  1.40100000E-02  1.77456900E+04  4.20072100E+03  1.36442900E+03
  5.22080600E+02  2.21459500E+02  1.00909600E+02  4.84011500E+01  2.39853600E+01
  1.21825000E+01  6.24229800E+00  3.11094400E+00  1.50995800E+00  7.10845000E-01
  2.73190000E-01  1.04233000E-01  1.77456900E+04  4.20072100E+03  1.36442900E+03
  5.22080600E+02  2.21459500E+02  1.00909600E+02  4.84011500E+01  2.39853600E+01
  1.21825000E+01  6.24229800E+00  3.11094400E+00  1.50995800E+00  7.10845000E-01
  2.73190000E-01  1.04233000E-01  1.77456900E+04  4.20072100E+03  1.36442900E+03
  5.22080600E+02  2.21459500E+02  1.00909600E+02  4.84011500E+01  2.39853600E+01
  1.21825000E+01  6.24229800E+00  3.11094400E+00  1.50995800E+00  7.10845000E-01
  2.73190000E-01  1.04233000E-01  1.77456900E+04  4.20072100E+03  1.36442900E+03
  5.22080600E+02  2.21459500E+02  1.00909600E+02  4.84011500E+01  2.39853600E+01
  1.21825000E+01  6.24229800E+00  3.11094400E+00  1.50995800E+00  7.10845000E-01
  2.73190000E-01  1.04233000E-01  3.82910000E-02  1.40700000E-02  1.13344000E+02
  3.36414000E+01  1.23310000E+01  4.99478000E+00  2.07280000E+00  8.30753000E-01
  3.09178000E-01  1.13344000E+02  3.36414000E+01  1.23310000E+01  4.99478000E+00
  2.07280000E+00  8.30753000E-01  3.09178000E-01  1.00130000E-01  3.24300000E-02
  3.22430000E+00  7.75800000E-01  2.74900000E-01
Contraction coefficients                   R   N=         278
  7.09645947E-04  5.46727229E-03  2.78231186E-02  1.04747740E-01  2.82920846E-01
  4.48495239E-01  2.70816885E-01  1.54502916E-02 -3.14443412E-04 -2.48213768E-03
 -1.23163554E-02 -5.05389173E-02 -1.39384903E-01 -3.25077495E-01 -2.29848308E-01
  1.09537935E+00  1.00000000E+00  1.00000000E+00  6.26791663E-02  3.33536566E-01
  7.41239642E-01  1.00000000E+00  1.00000000E+00  1.00000000E+00  1.00000000E+00
  7.09645947E-04  5.46727229E-03  2.78231186E-02  1.04747740E-01  2.82920846E-01
  4.48495239E-01  2.70816885E-01  1.54502916E-02 -3.14443412E-04 -2.48213768E-03
 -1.23163554E-02 -5.05389173E-02 -1.39384903E-01 -3.25077495E-01 -2.29848308E-01
  1.09537935E+00  1.00000000E+00  1.00000000E+00  6.26791663E-02  3.33536566E-01
  7.41239642E-01  1.00000000E+00  1.00000000E+00  1.00000000E+00  1.00000000E+00
  7.09645947E-04  5.46727229E-03  2.78231186E-02  1.04747740E-01  2.82920846E-01
  4.48495239E-01  2.70816885E-01  1.54502916E-02 -3.14443412E-04 -2.48213768E-03
 -1.23163554E-02 -5.05389173E-02 -1.39384903E-01 -3.25077495E-01 -2.29848308E-01
  1.09537935E+00  1.00000000E+00  1.00000000E+00  6.26791663E-02  3.33536566E-01
  7.41239642E-01  1.00000000E+00  1.00000000E+00  1.00000000E+00  1.00000000E+00
  7.09645947E-04  5.46727229E-03  2.78231186E-02  1.04747740E-01  2.82920846E-01
  4.48495239E-01  2.70816885E-01  1.54502916E-02 -3.14443412E-04 -2.48213768E-03
 -1.23163554E-02 -5.05389173E-02 -1.39384903E-01 -3.25077495E-01 -2.29848308E-01
  1.09537935E+00  1.00000000E+00  1.00000000E+00  6.26791663E-02  3.33536566E-01
  7.41239642E-01  1.00000000E+00  1.00000000E+00  1.00000000E+00  1.00000000E+00
  8.04880232E-06  6.25830547E-05  3.29023872E-04  1.38735488E-03  5.02325558E-03
  1.61013986E-02  4.59003361E-02  1.13615390E-01  2.28386881E-01  3.22115873E-01
  2.38366080E-01  7.40466637E-02  9.21419622E-02  9.33978921E-02  1.57396487E-02
 -4.18668165E-04  5.37631755E-05 -3.81665368E-05  4.31960264E-05 -4.15593700E-06
 -3.23138778E-05 -1.69951805E-04 -7.17133966E-04 -2.60361435E-03 -8.39907464E-03
 -2.43409904E-02 -6.25192242E-02 -1.36592341E-01 -2.31269754E-01 -2.38372425E-01
  3.12382422E-02  5.08679719E-01  4.98767459E-01  9.03351504E-02 -6.00531243E-03
  2.31244454E-04 -5.64365691E-04  4.99223957E-04  9.53927950E-07  7.42012890E-06
  3.90129731E-05  1.64837913E-04  5.99043957E-04  1.94383709E-03  5.69147401E-03
  1.50244749E-02  3.45502709E-02  6.50065940E-02  7.72194258E-02 -1.87480670E-02
 -3.01142685E-01 -4.55805423E-01  1.28742142E-01  7.18866759E-01  4.05476156E-01
  2.16984233E-02 -8.34978198E-03 -2.78553167E-07 -2.16599429E-06 -1.13938160E-05
 -4.81106712E-05 -1.74989310E-04 -5.67302987E-04 -1.66341909E-03 -4.38678625E-03
 -1.01182283E-02 -1.90395955E-02 -2.28404610E-02  5.69660756E-03  9.22720327E-02
  1.48282201E-01 -5.41307178E-02 -2.93639402E-01 -3.32849490E-01  3.68806068E-01
  7.76154537E-01 -4.04577365E-07 -3.21821470E-06 -1.63781720E-05 -7.22291676E-05
 -2.48633172E-04 -8.62249815E-04 -2.32854686E-03 -6.78938757E-03 -1.37857032E-02
 -3.09004636E-02 -2.65502877E-02 -9.84880934E-03  1.81826802E-01  1.54352369E-01
  5.55540434E-02 -9.63809418E-01  2.61030229E-01  1.85070289E+00 -9.41798953E-01
  1.00000000E+00  1.00000000E+00  4.09999864E-05  3.68999877E-04  2.12899929E-03
  9.36899689E-03  3.30969890E-02  9.44309686E-02  2.08076931E-01  3.32332890E-01
  3.32986889E-01  1.56842948E-01  2.15489928E-02 -2.09499930E-03 -1.73899942E-03
 -2.99999900E-04  2.89999904E-05 -1.50016907E-05 -1.30014652E-04 -7.51084646E-04
 -3.32937522E-03 -1.19133426E-02 -3.49369373E-02 -7.99980157E-02 -1.34651175E-01
 -1.38613622E-01  3.02814127E-02  3.33253557E-01  4.56204414E-01  2.85083128E-01
  4.61492009E-02 -3.24936620E-03  4.20590514E-06  4.06570831E-05  2.31324783E-04
  1.02904479E-03  3.68156897E-03  1.08302057E-02  2.48611053E-02  4.21361597E-02
  4.35928048E-02 -1.40869783E-02 -1.23802220E-01 -1.82009143E-01 -1.07863241E-01
  2.98143998E-01  8.03413403E-01  5.21799259E-06  4.38311377E-05  2.51507243E-04
  1.13230439E-03  3.99802592E-03  1.19210259E-02  2.69164930E-02  4.67719984E-02
  4.65424067E-02 -1.16643006E-02 -1.44156438E-01 -1.96493947E-01 -1.12081437E-01
  4.64258367E-01  6.68152471E-01  1.00000000E+00  1.00000000E+00  3.58588655E-03
  2.61922093E-02  1.00688241E-01  2.42857976E-01  3.62854133E-01  3.67922119E-01
  2.40204623E-01 -5.01135386E-03 -3.66408551E-02 -1.44838433E-01 -3.53315906E-01
 -4.06507112E-01  7.35715701E-02  7.26071743E-01  1.00000000E+00  1.00000000E+00
  4.22249113E-01  7.71468206E-01  1.00000000E+00
Coordinates of each shell                  R   N=         165
  0.00000000E+00  2.58468802E+00  1.82716107E+00  0.00000000E+00  2.58468802E+00
  1.82716107E+00  0.00000000E+00  2.58468802E+00  1.82716107E+00  0.00000000E+00
  2.58468802E+00  1.82716107E+00  0.00000000E+00  2.58468802E+00  1.82716107E+00
  0.00000000E+00  2.58468802E+00  1.82716107E+00  0.00000000E+00  2.58468802E+00
  1.82716107E+00  0.00000000E+00  2.58468802E+00  1.82716107E+00  0.00000000E+00
  2.58468802E+00  1.82716107E+00  0.00000000E+00 -2.58468802E+00  1.82716107E+00
  0.00000000E+00 -2.58468802E+00  1.82716107E+00  0.00000000E+00 -2.58468802E+00
  1.82716107E+00  0.00000000E+00 -2.58468802E+00  1.82716107E+00  0.00000000E+00
 -2.58468802E+00  1.82716107E+00  0.00000000E+00 -2.58468802E+00  1.82716107E+00
  0.00000000E+00 -2.58468802E+00  1.82716107E+00  0.00000000E+00 -2.58468802E+00
  1.82716107E+00  0.00000000E+00 -2.58468802E+00  1.82716107E+00 -2.58492613E+00
  0.00000000E+00 -1.82709871E+00 -2.58492613E+00  0.00000000E+00 -1.82709871E+00
 -2.58492613E+00  0.00000000E+00 -1.82709871E+00 -2.58492613E+00  0.00000000E+00
 -1.82709871E+00 -2.58492613E+00  0.00000000E+00 -1.82709871E+00 -2.58492613E+00
  0.00000000E+00 -1.82709871E+00 -2.58492613E+00  0.00000000E+00 -1.82709871E+00
 -2.58492613E+00  0.00000000E+00 -1.82709871E+00 -2.58492613E+00  0.00000000E+00
 -1.82709871E+00  2.58492613E+00  0.00000000E+00 -1.82709871E+00  2.58492613E+00
  0.00000000E+00 -1.82709871E+00  2.58492613E+00  0.00000000E+00 -1.82709871E+00
  2.58492613E+00  0.00000000E+00 -1.82709871E+00  2.58492613E+00  0.00000000E+00
 -1.82709871E+00  2.58492613E+00  0.00000000E+00 -1.82709871E+00  2.58492613E+00
  0.00000000E+00 -1.82709871E+00  2.58492613E+00  0.00000000E+00 -1.82709871E+00
  2.58492613E+00  0.00000000E+00 -1.82709871E+00  0.00000000E+00  0.00000000E+00
 -3.77945225E-05  0.00000000E+00  0.00000000E+00 -3.77945225E-05  0.00000000E+00
  0.00000000E+00 -3.77945225E-05  0.00000000E+00  0.00000000E+00 -3.77945225E-05
  0.00000000E+00  0.00000000E+00 -3.77945225E-05  0.00000000E+00  0.00000000E+00
 -3.77945225E-05  0.00000000E+00  0.00000000E+00 -3.77945225E-05  0.00000000E+00
  0.00000000E+00 -3.77945225E-05  0.00000000E+00  0.00000000E+00 -3.77945225E-05
  0.00000000E+00  0.00000000E+00 -3.77945225E-05  0.00000000E+00  0.00000000E+00
 -3.77945225E-05  0.00000000E+00  0.00000000E+00 -3.77945225E-05  0.00000000E+00
  0.00000000E+00 -3.77945225E-05  0.00000000E+00  0.00000000E+00 -3.77945225E-05
  0.00000000E+00  0.00000000E+00 -3.77945225E-05  0.00000000E+00  0.00000000E+00
 -3.77945225E-05  0.00000000E+00  0.00000000E+00 -3.77945225E-05  0.00000000E+00
  0.00000000E+00 -3.77945225E-05  0.00000000E+00  0.00000000E+00 -3.77945225E-05
Num ILSW                                   I                0
ILSW                                       I   N=           0
Num RLSW                                   I                0
RLSW                                       R   N=           0
MxBond                                     I                0
NBond                                      I   N=           0
IBond                                      I   N=           0
RBond                                      R   N=           0
SCF Energy                                 R     -1.561544432361848E+03
Total Energy                               R     -1.561544432361848E+03
S**2                                       R      4.351239134310912E+00
Virial Ratio                               R      1.998915075246090E+00
RMS Density                                R      0.000000000000000E+00
Job Status                                 I                1
External E-field                           R   N=          35
  0.00000000E+00  0.00000000E+00  0.00000000E+00  0.00000000E+00  0.00000000E+00
  0.00000000E+00  0.00000000E+00  0.00000000E+00  0.00000000E+00  0.00000000E+00
  0.00000000E+00  0.00000000E+00  0.00000000E+00  0.00000000E+00  0.00000000E+00
  0.00000000E+00  0.00000000E+00  0.00000000E+00  0.00000000E+00  0.00000000E+00
  0.00000000E+00  0.00000000E+00  0.00000000E+00  0.00000000E+00  0.00000000E+00
  0.00000000E+00  0.00000000E+00  0.00000000E+00  0.00000000E+00  0.00000000E+00
  0.00000000E+00  0.00000000E+00  0.00000000E+00  0.00000000E+00  0.00000000E+00
IOpCl                                      I                0
IROHF                                      I                0
Alpha Orbital Energies                     R   N=         151
 -2.60898744E+02 -3.14667444E+01 -2.69651608E+01 -2.69346530E+01 -2.69311450E+01
 -2.01668839E+01 -2.01668818E+01 -2.01652142E+01 -2.01652120E+01 -3.65719107E+00
 -2.29429780E+00 -2.19819576E+00 -2.18042446E+00 -9.04512662E-01 -8.83073817E-01
 -8.82957296E-01 -8.82758786E-01 -2.68494624E-01 -2.35614892E-01 -2.07187428E-01
 -2.00903938E-01 -1.69493521E-01 -1.67560085E-01 -1.44321994E-01 -1.43024888E-01
 -1.40764495E-01 -1.28976552E-01 -9.38861179E-02 -8.40709850E-02 -4.36525743E-02
 -9.16502101E-03  2.13430429E-01  2.13469924E-01  2.14164766E-01  2.17756525E-01
  3.28565808E-01  3.31610384E-01  3.49819315E-01  3.50165267E-01  3.50601448E-01
  3.92322508E-01  3.96061943E-01  3.96151716E-01  3.98821618E-01  5.71270297E-01
  5.72086901E-01  5.76809463E-01  5.80998745E-01  5.89129926E-01  5.89480330E-01
  5.90085875E-01  6.00868077E-01  6.12601193E-01  6.24536719E-01  6.25083891E-01
  6.31822865E-01  6.97959510E-01  6.97987446E-01  6.98570253E-01  7.06310049E-01
  7.48267231E-01  7.50202086E-01  7.52656535E-01  8.46759620E-01  8.47196128E-01
  8.50806372E-01  9.32672695E-01  9.55939379E-01  1.07346867E+00  1.07348415E+00
  1.08060683E+00  1.11642064E+00  1.40830340E+00  1.41067426E+00  1.41075387E+00
  1.44487972E+00  1.45001642E+00  1.45689404E+00  1.46424858E+00  1.46916540E+00
  1.47844716E+00  1.49539570E+00  1.49585398E+00  1.50999689E+00  1.53450408E+00
  1.54216883E+00  1.59467459E+00  1.61476743E+00  1.61609815E+00  1.67895048E+00
  1.67930524E+00  1.69512543E+00  1.82009755E+00  1.82035742E+00  1.82544309E+00
  1.83349846E+00  1.85592969E+00  1.86335429E+00  1.97156168E+00  1.97195602E+00
  2.01193655E+00  2.01225643E+00  2.01630766E+00  2.02790369E+00  2.11302391E+00
  2.11973493E+00  2.13876930E+00  2.19560504E+00  2.20385181E+00  2.20504594E+00
  2.20865146E+00  2.28169137E+00  2.28350378E+00  2.29144121E+00  3.06442902E+00
  3.07384180E+00  3.07568627E+00  3.16143654E+00  3.19336838E+00  3.29055853E+00
  3.83482524E+00  3.84528696E+00  3.84953353E+00  3.88406264E+00  3.97111143E+00
  3.97679163E+00  3.97916659E+00  3.98531074E+00  4.01635245E+00  4.03738448E+00
  4.04772818E+00  4.08606230E+00  4.08733872E+00  4.09206760E+00  4.09963827E+00
  4.10479768E+00  4.10859725E+00  4.14785930E+00  4.15759957E+00  4.19378678E+00
  4.19471074E+00  4.39784417E+00  4.41680815E+00  4.42454815E+00  4.71123494E+00
  4.75674290E+00  4.78744345E+00  5.02665224E+00  5.04508405E+00  5.05945950E+00
  5.20332730E+00
Beta Orbital Energies                      R   N=         151
 -2.60900659E+02 -3.15064232E+01 -2.69943946E+01 -2.69885371E+01 -2.69665695E+01
 -2.01306609E+01 -2.01306594E+01 -2.01261926E+01 -2.01261894E+01 -3.77624982E+00
 -2.41056302E+00 -2.39009602E+00 -2.30202508E+00 -7.59278297E-01 -7.35577153E-01
 -7.30441016E-01 -7.29358337E-01 -2.40689918E-01 -2.18796217E-01 -1.80308172E-01
 -1.25100431E-01 -1.00856069E-01 -8.76111182E-02 -8.46522005E-02 -6.21787553E-02
 -3.56987803E-02  2.38219854E-02  4.29773621E-02  6.99926655E-02  2.13307410E-01
  2.13415023E-01  2.14266514E-01  2.17633853E-01  3.26362878E-01  3.31707454E-01
  3.50211131E-01  3.50499246E-01  3.51164335E-01  3.87375856E-01  3.87687369E-01
  3.92902720E-01  4.00172136E-01  4.91400333E-01  4.97241649E-01  4.97670843E-01
  5.06541464E-01  5.75762458E-01  5.78894500E-01  5.80258922E-01  5.90330568E-01
  6.00652588E-01  6.03172688E-01  6.09828832E-01  6.29447483E-01  6.54311624E-01
  6.61154470E-01  6.64042883E-01  6.82069145E-01  6.94098817E-01  7.04049970E-01
  7.38017756E-01  7.56324250E-01  7.57616571E-01  8.22105138E-01  8.22366862E-01
  8.26881518E-01  9.61632431E-01  9.86207667E-01  1.06972701E+00  1.06993667E+00
  1.07392016E+00  1.10354147E+00  1.43625316E+00  1.43638708E+00  1.43767754E+00
  1.43839654E+00  1.44463076E+00  1.44495408E+00  1.49897876E+00  1.50053708E+00
  1.50237787E+00  1.50961652E+00  1.50998055E+00  1.54291486E+00  1.54842720E+00
  1.54944835E+00  1.63491389E+00  1.63812554E+00  1.64855774E+00  1.70315594E+00
  1.71603953E+00  1.71626086E+00  1.82701111E+00  1.82721821E+00  1.83104415E+00
  1.89388439E+00  1.90370649E+00  1.94017116E+00  1.98700467E+00  2.01250361E+00
  2.02174576E+00  2.02385268E+00  2.04333226E+00  2.09620512E+00  2.15145923E+00
  2.16751500E+00  2.17038506E+00  2.21327087E+00  2.21422539E+00  2.21492220E+00
  2.21957905E+00  2.31103008E+00  2.31216042E+00  2.31266803E+00  3.04507132E+00
  3.05298265E+00  3.06093790E+00  3.19361111E+00  3.20833031E+00  3.25602940E+00
  3.84662881E+00  3.84823787E+00  3.85888397E+00  3.90383281E+00  4.00787204E+00
  4.04976299E+00  4.05296760E+00  4.05612981E+00  4.10547804E+00  4.10710715E+00
  4.11964701E+00  4.13554157E+00  4.16492706E+00  4.16582122E+00  4.16909399E+00
  4.17317454E+00  4.17650127E+00  4.17749106E+00  4.22991987E+00  4.23391859E+00
  4.23705759E+00  4.36517323E+00  4.38976599E+00  4.39687102E+00  4.64612963E+00
  4.65528912E+00  4.72328060E+00  5.00879511E+00  5.02357343E+00  5.04336523E+00
  5.10469907E+00
Alpha MO coefficients                      R   N=       22801
  2.58414603E-08  1.87314429E-07 -6.31468685E-06  1.60562868E-05 -2.69525170E-17
  2.02675256E-07  1.98802863E-07  2.38037116E-15  2.04182455E-06  9.25201714E-07
  4.59240543E-17 -5.14112260E-06 -3.71545939E-06 -1.67793299E-08  4.01704635E-17
  4.02553246E-07 -3.10703537E-07 -1.41525120E-16  2.98490892E-07 -8.46046203E-16
  1.07377432E-06 -4.32317292E-07 -1.17978138E-15  2.58400960E-08  1.87312063E-07
 -6.31468007E-06  1.60562720E-05 -2.45234021E-16 -2.02675199E-07  1.98802922E-07
  3.50254616E-15 -2.04181779E-06  9.25196017E-07  6.49437168E-16  5.14111714E-06
 -3.71545522E-06 -1.67794233E-08  2.05803701E-16 -4.02553715E-07 -3.10703779E-07
  9.18241559E-17  2.98491680E-07 -1.93380019E-15 -1.07377818E-06 -4.32319740E-07
  1.89583786E-15  5.92397971E-07  1.18040276E-06 -1.02995355E-05  1.14678286E-05
 -1.57679036E-07  5.88884086E-14 -1.42420468E-07 -4.90674919E-06 -4.63820463E-13
 -3.36175793E-06  4.21479988E-06  2.21121421E-13  3.10430568E-06 -1.43627589E-08
  2.54790942E-07 -6.25301984E-14  2.05675728E-07  6.71737646E-14  1.57826897E-08
 -2.12715179E-07 -1.87962359E-13 -2.43778936E-07 -5.76328243E-13  5.92397987E-07
  1.18040279E-06 -1.02995357E-05  1.14678285E-05  1.57679035E-07  5.91669514E-14
 -1.42420467E-07  4.90674928E-06 -4.65946206E-13 -3.36175799E-06 -4.21479988E-06
  2.20490592E-13  3.10430567E-06 -1.43627585E-08 -2.54790937E-07 -6.23790777E-14
  2.05675725E-07 -6.73158837E-14  1.57826882E-08  2.12715214E-07 -1.89122528E-13
 -2.43778963E-07  5.77627965E-13  9.83546385E-01 -1.80653065E-01 -4.28585467E-04
 -4.48488138E-05  2.20940054E-05  1.71916127E-05 -2.95874395E-06  1.13931705E-13
  2.13661783E-11  1.10098016E-06  1.52063033E-14 -5.36526888E-12 -1.29118143E-06
 -3.59211461E-13 -8.96097609E-11  7.05325005E-06  4.35828978E-13  9.02325584E-11
 -1.18993669E-05  1.33467724E-14 -3.93727384E-13 -9.06231353E-07 -2.02174186E-15
  3.39051331E-13  1.83815201E-07 -6.45617296E-08 -2.40291120E-14  2.38919428E-12
  9.35652787E-07  3.34658032E-16  9.81243242E-07 -5.71528461E-14  3.22754802E-12
  3.28095851E-06  2.79903405E-15  2.58768595E-07 -7.75092148E-16 -3.69969442E-12
  6.86251320E-07  9.13060876E-16  4.90339081E-08 -3.88557109E-15  9.26768934E-13
  8.24138280E-08  1.83658809E-16  6.05195511E-07  1.15767764E-14  8.14069791E-13
 -5.52400501E-07  9.42763716E-16  4.47797265E-15 -6.20089771E-13  5.45243874E-07
  7.48127786E-16 -3.10269493E-13 -6.47187203E-06 -7.76057481E-16  1.00231426E-14
  5.24336597E-14 -3.07529983E-05 -5.58279932E-05  3.51023952E-04  9.45082032E-04
 -9.76602878E-15 -4.72249432E-06  1.54243783E-05  6.49843877E-13 -1.60227305E-04
 -2.80894919E-04 -6.69368451E-14 -2.26030085E-04 -1.80189453E-04 -5.15056531E-06
 -9.61144814E-15  7.68117021E-08 -6.72039483E-06 -2.27048264E-14  8.59613956E-05
 -4.76407406E-13  9.98039475E-05  3.33632213E-05 -3.01528385E-13 -3.07529782E-05
 -5.58279587E-05  3.51023971E-04  9.45083121E-04 -8.01550150E-14  4.72248694E-06
  1.54243758E-05  1.23601234E-12  1.60227248E-04 -2.80894797E-04  7.83577989E-14
  2.26030420E-04 -1.80189704E-04 -5.15056042E-06  2.53487465E-14 -7.67998301E-08
 -6.72038981E-06 -9.87419013E-15  8.59613397E-05 -7.91564145E-13 -9.98038468E-05
  3.33632611E-05  6.62263281E-13  5.04909061E-05  8.55748492E-05 -4.02295990E-04
 -2.42063714E-04 -1.56193898E-06 -4.10597336E-12 -4.48156830E-06 -2.49756007E-04
  3.73913770E-11 -1.91791537E-04 -4.77736413E-05 -9.89562940E-12 -1.05745292E-05
 -1.45366746E-06 -1.50524144E-05  2.43531353E-12 -4.55109418E-06 -3.02011086E-12
 -9.51716951E-06 -1.13130545E-04  1.97691528E-11 -7.87671680E-05  3.60455614E-11
  5.04909081E-05  8.55748527E-05 -4.02296008E-04 -2.42063736E-04  1.56193884E-06
 -4.04923831E-12 -4.48156837E-06  2.49756020E-04  3.70926130E-11 -1.91791544E-04
  4.77736461E-05 -1.00362233E-11 -1.05745324E-05 -1.45366749E-06  1.50524149E-05
  2.47254186E-12 -4.55109445E-06  3.00207214E-12 -9.51716831E-06  1.13130548E-04
  1.94895100E-11 -7.87671718E-05 -3.58588061E-11  1.80612768E-01  9.83435862E-01
  3.86890943E-03 -1.56320969E-03  4.79728124E-04 -1.50350498E-04  6.80976361E-05
  9.67653259E-12  6.56589878E-09 -4.84235356E-04  4.61135646E-12  4.31896011E-10
 -4.40979254E-04 -7.32185309E-12  3.88474842E-09 -7.47969391E-04  2.23318709E-11
 -3.63642361E-09 -2.13938889E-04  2.86053198E-12  7.18163162E-11 -1.92186128E-04
 -6.33872071E-13 -2.74668927E-11  4.60865275E-05 -1.06573387E-04  1.52735825E-14
 -7.96345938E-11 -9.35796206E-05 -1.18051628E-13  2.87763870E-04 -1.13246495E-11
  5.20236718E-11  7.65724683E-04  8.95029476E-13  5.53831240E-05 -3.56170790E-12
  2.28572974E-10  2.77669217E-04  2.17074337E-13  1.04382129E-05 -6.30353255E-14
 -4.05095391E-11 -7.37747216E-06  4.21245217E-14 -4.09633735E-05 -8.58135254E-13
 -4.61276798E-11  6.88924747E-05 -2.00698213E-13 -3.18680892E-13  2.34946373E-11
  2.31575883E-04  2.77283052E-12  5.84321329E-11  5.75532122E-06  2.18239798E-13
  2.30961091E-12 -3.84631882E-11 -5.73616602E-05 -9.90886073E-05 -8.76812753E-05
 -4.67099075E-04  7.17394341E-14  1.05897439E-05  2.61149975E-05 -1.75204670E-12
 -1.71787065E-05 -3.94822969E-04  7.42890045E-15  1.53613973E-04  7.12650840E-05
 -1.49797358E-05  3.45339190E-14  3.27553323E-05 -2.56143532E-05 -1.15976953E-13
  1.34201388E-04  4.40968765E-15  1.83708713E-04 -3.40034850E-05  9.06233495E-13
  5.73615649E-05  9.90884359E-05  8.76822643E-05  4.67099747E-04 -2.86372851E-14
  1.05897684E-05 -2.61149714E-05  9.63606039E-13 -1.71783320E-05  3.94822280E-04
 -1.42024251E-13  1.53614045E-04 -7.12652064E-05  1.49797236E-05 -5.26808739E-14
  3.27553398E-05  2.56143369E-05 -8.93170586E-14 -1.34201195E-04  3.09153984E-13
  1.83708371E-04  3.40035172E-05  6.61777348E-13  5.97543056E-11  1.02801159E-10
 -5.34434323E-10 -1.21056873E-09  3.98067423E-12 -1.07622625E-05 -2.86106313E-12
 -3.63899315E-10  3.80163399E-05 -2.75568617E-10 -3.04319360E-10  4.99383959E-05
 -1.92210106E-10 -2.90640303E-12 -2.05981264E-11 -1.18397187E-05 -8.73313561E-12
  4.86254970E-06  1.28367125E-12 -1.13056661E-10  1.07933456E-04 -7.50296763E-11
 -5.95369540E-05  5.98047615E-11  1.02886982E-10 -5.33679192E-10 -1.20951846E-09
 -4.02375691E-12 -1.07622627E-05 -2.84518749E-12  3.64137389E-10  3.80163439E-05
 -2.75231985E-10  3.04049660E-10  4.99383961E-05 -1.92109997E-10 -2.94744964E-12
  2.06448629E-11 -1.18397188E-05 -8.79782915E-12 -4.86254940E-06  1.64756582E-12
  1.13254019E-10  1.07933456E-04 -7.50111071E-11  5.95369516E-05 -1.16568841E-09
 -6.35014674E-09  8.94863023E-10  1.67853751E-09 -3.48136536E-10  1.00653654E-10
 -5.63265608E-11 -5.68621869E-10  9.99971125E-01 -9.92436800E-08 -3.62051896E-12
  7.46678494E-03 -1.20177167E-09 -1.84516873E-12  4.37096038E-03 -6.00802550E-10
  1.38303733E-12 -4.26587335E-03 -6.98617640E-10 -6.60260237E-14  1.52403634E-05
 -2.52579707E-10  3.30525429E-14 -2.60960828E-05  6.14015787E-11 -8.71666025E-11
 -1.07596829E-13 -1.50106942E-04  1.04129920E-10  4.76598580E-13  3.50873484E-10
  3.38809607E-13 -3.34499123E-05  8.65257367E-10 -1.62952771E-12  7.41130092E-11
  6.02493957E-13  5.57627463E-04  3.97877045E-10 -2.80393202E-13  1.42132664E-11
 -4.60565548E-14 -6.59896893E-05 -9.13212983E-12 -5.24081852E-14 -2.04968210E-10
 -6.84647488E-14 -1.26473575E-03 -1.67171344E-10 -7.42750319E-12  1.65621059E-12
  4.89589413E-04  3.68045897E-10  1.67565450E-13  8.83237591E-04  2.79948701E-11
  5.74979646E-12 -1.22620256E-12 -1.79546835E-04 -2.43765869E-05 -4.02916954E-05
 -1.52406494E-04  4.79524487E-04 -3.92262270E-13  1.23334369E-05  4.62937662E-06