Automatically generated file for job FeO42-
SP        Unrestrictedaug-cc-pvdz
Number of atoms                            I                5
Charge                                     I               -2
Number of electrons                        I               60
Number of alpha electrons                  I               31
Number of beta electrons                   I               29
Number of basis functions                  I              151
Number of independent functions            I              151
Atomic numbers                             I   N=           5
           8           8           8           8          26
Nuclear charges                            R   N=           5
  8.00000000E+00  8.00000000E+00  8.00000000E+00  8.00000000E+00  2.60000000E+01
Current cartesian coordinates              R   N=          15
  0.00000000E+00  2.58468802E+00  1.82716107E+00  0.00000000E+00 -2.58468802E+00
  1.82716107E+00 -2.58492613E+00  0.00000000E+00 -1.82709871E+00  2.58492613E+00
  0.00000000E+00 -1.82709871E+00  0.00000000E+00  0.00000000E+00 -3.77945225E-05
Force Field
Int Atom Types
MM charges
Atom fragment info
Atom residue num
Nuclear spins
Nuclear QMom
Nuclear GFac
MicOpt
SymInf integers
RotTr to input orientation
Nuclear ZEff
Nuclear ZNuc
Integer atomic weights
Real atomic weights
Number of contracted shells                I               55
Number of primitive shells                 I              278
Pure/Cartesian d shells                    I                1
Pure/Cartesian f shells                    I                1
Highest angular momentum                   I                3
Largest degree of contraction              I               19
Shell types                                I   N=          55
           0           0           0           0           1           1
           1          -2          -2           0           0           0
           0           1           1           1          -2          -2
           0           0           0           0           1           1
           1          -2          -2           0           0           0
           0           1           1           1          -2          -2
           0           0           0           0           0           0
           0           1           1           1           1           1
           1          -2          -2          -2          -2          -3
          -3
Number of primitives per shell             I   N=          55
           8           8           1           1           3           1
           1           1           1           8           8           1
           1           3           1           1           1           1
           8           8           1           1           3           1
           1           1           1           8           8           1
           1           3           1           1           1           1
          19          19          19          19          19           1
           1          15          15          15          15           1
           1           7           7           1           1           2
           1
Shell to atom map                          I   N=          55
           1           1           1           1           1           1
           1           1           1           2           2           2
           2           2           2           2           2           2
           3           3           3           3           3           3
           3           3           3           4           4           4
           4           4           4           4           4           4
           5           5           5           5           5           5
           5           5           5           5           5           5
           5           5           5           5           5           5
           5
Primitive exponents                        R   N=         278
  1.17200000E+04  1.75900000E+03  4.00800000E+02  1.13700000E+02  3.70300000E+01
  1.32700000E+01  5.02500000E+00  1.01300000E+00  1.17200000E+04  1.75900000E+03
  4.00800000E+02  1.13700000E+02  3.70300000E+01  1.32700000E+01  5.02500000E+00
  1.01300000E+00  3.02300000E-01  7.89600000E-02  1.77000000E+01  3.85400000E+00
  1.04600000E+00  2.75300000E-01  6.85600000E-02  1.18500000E+00  3.32000000E-01
  1.17200000E+04  1.75900000E+03  4.00800000E+02  1.13700000E+02  3.70300000E+01
  1.32700000E+01  5.02500000E+00  1.01300000E+00  1.17200000E+04  1.75900000E+03
  4.00800000E+02  1.13700000E+02  3.70300000E+01  1.32700000E+01  5.02500000E+00
  1.01300000E+00  3.02300000E-01  7.89600000E-02  1.77000000E+01  3.85400000E+00
  1.04600000E+00  2.75300000E-01  6.85600000E-02  1.18500000E+00  3.32000000E-01
  1.17200000E+04  1.75900000E+03  4.00800000E+02  1.13700000E+02  3.70300000E+01
  1.32700000E+01  5.02500000E+00  1.01300000E+00  1.17200000E+04  1.75900000E+03
  4.00800000E+02  1.13700000E+02  3.70300000E+01  1.32700000E+01  5.02500000E+00
  1.01300000E+00  3.02300000E-01  7.89600000E-02  1.77000000E+01  3.85400000E+00
  1.04600000E+00  2.75300000E-01  6.85600000E-02  1.18500000E+00  3.32000000E-01
  1.17200000E+04  1.75900000E+03  4.00800000E+02  1.13700000E+02  3.70300000E+01
  1.32700000E+01  5.02500000E+00  1.01300000E+00  1.17200000E+04  1.75900000E+03
  4.00800000E+02  1.13700000E+02  3.70300000E+01  1.32700000E+01  5.02500000E+00
  1.01300000E+00  3.02300000E-01  7.89600000E-02  1.77000000E+01  3.85400000E+00
  1.04600000E+00  2.75300000E-01  6.85600000E-02  1.18500000E+00  3.32000000E-01
  4.31626500E+06  6.46342400E+05  1.47089700E+05  4.16615200E+04  1.35907700E+04
  4.90575000E+03  1.91274600E+03  7.92604300E+02  3.44806500E+02  1.55899900E+02
  7.22309100E+01  3.27250600E+01  1.56676200E+01  7.50348300E+00  3.31222300E+00
  1.55847100E+00  6.83914000E-01  1.46757000E-01  7.05830000E-02  4.31626500E+06
  6.46342400E+05  1.47089700E+05  4.16615200E+04  1.35907700E+04  4.90575000E+03
  1.91274600E+03  7.92604300E+02  3.44806500E+02  1.55899900E+02  7.22309100E+01
  3.27250600E+01  1.56676200E+01  7.50348300E+00  3.31222300E+00  1.55847100E+00
  6.83914000E-01  1.46757000E-01  7.05830000E-02  4.31626500E+06  6.46342400E+05
  1.47089700E+05  4.16615200E+04  1.35907700E+04  4.90575000E+03  1.91274600E+03
  7.92604300E+02  3.44806500E+02  1.55899900E+02  7.22309100E+01  3.27250600E+01
  1.56676200E+01  7.50348300E+00  3.31222300E+00  1.55847100E+00  6.83914000E-01
  1.46757000E-01  7.05830000E-02  4.31626500E+06  6.46342400E+05  1.47089700E+05
  4.16615200E+04  1.35907700E+04  4.90575000E+03  1.91274600E+03  7.92604300E+02
  3.44806500E+02  1.55899900E+02  7.22309100E+01  3.27250600E+01  1.56676200E+01
  7.50348300E+00  3.31222300E+00  1.55847100E+00  6.83914000E-01  1.46757000E-01
  7.05830000E-02  4.31626500E+06  6.46342400E+05  1.47089700E+05  4.16615200E+04
  1.35907700E+04  4.90575000E+03  1.91274600E+03  7.92604300E+02  3.44806500E+02
  1.55899900E+02  7.22309100E+01  3.27250600E+01  1.56676200E+01  7.50348300E+00
  3.31222300E+00  1.55847100E+00  6.83914000E-01  1.46757000E-01  7.05830000E-02
  3.14490000E-02  1.40100000E-02  1.77456900E+04  4.20072100E+03  1.36442900E+03
  5.22080600E+02  2.21459500E+02  1.00909600E+02  4.84011500E+01  2.39853600E+01
  1.21825000E+01  6.24229800E+00  3.11094400E+00  1.50995800E+00  7.10845000E-01
  2.73190000E-01  1.04233000E-01  1.77456900E+04  4.20072100E+03  1.36442900E+03
  5.22080600E+02  2.21459500E+02  1.00909600E+02  4.84011500E+01  2.39853600E+01
  1.21825000E+01  6.24229800E+00  3.11094400E+00  1.50995800E+00  7.10845000E-01
  2.73190000E-01  1.04233000E-01  1.77456900E+04  4.20072100E+03  1.36442900E+03
  5.22080600E+02  2.21459500E+02  1.00909600E+02  4.84011500E+01  2.39853600E+01
  1.21825000E+01  6.24229800E+00  3.11094400E+00  1.50995800E+00  7.10845000E-01
  2.73190000E-01  1.04233000E-01  1.77456900E+04  4.20072100E+03  1.36442900E+03
  5.22080600E+02  2.21459500E+02  1.00909600E+02  4.84011500E+01  2.39853600E+01
  1.21825000E+01  6.24229800E+00  3.11094400E+00  1.50995800E+00  7.10845000E-01
  2.73190000E-01  1.04233000E-01  3.82910000E-02  1.40700000E-02  1.13344000E+02
  3.36414000E+01  1.23310000E+01  4.99478000E+00  2.07280000E+00  8.30753000E-01
  3.09178000E-01  1.13344000E+02  3.36414000E+01  1.23310000E+01  4.99478000E+00
  2.07280000E+00  8.30753000E-01  3.09178000E-01  1.00130000E-01  3.24300000E-02
  3.22430000E+00  7.75800000E-01  2.74900000E-01
Contraction coefficients                   R   N=         278
  7.09645947E-04  5.46727229E-03  2.78231186E-02  1.04747740E-01  2.82920846E-01
  4.48495239E-01  2.70816885E-01  1.54502916E-02 -3.14443412E-04 -2.48213768E-03
 -1.23163554E-02 -5.05389173E-02 -1.39384903E-01 -3.25077495E-01 -2.29848308E-01
  1.09537935E+00  1.00000000E+00  1.00000000E+00  6.26791663E-02  3.33536566E-01
  7.41239642E-01  1.00000000E+00  1.00000000E+00  1.00000000E+00  1.00000000E+00
  7.09645947E-04  5.46727229E-03  2.78231186E-02  1.04747740E-01  2.82920846E-01
  4.48495239E-01  2.70816885E-01  1.54502916E-02 -3.14443412E-04 -2.48213768E-03
 -1.23163554E-02 -5.05389173E-02 -1.39384903E-01 -3.25077495E-01 -2.29848308E-01
  1.09537935E+00  1.00000000E+00  1.00000000E+00  6.26791663E-02  3.33536566E-01
  7.41239642E-01  1.00000000E+00  1.00000000E+00  1.00000000E+00  1.00000000E+00
  7.09645947E-04  5.46727229E-03  2.78231186E-02  1.04747740E-01  2.82920846E-01
  4.48495239E-01  2.70816885E-01  1.54502916E-02 -3.14443412E-04 -2.48213768E-03
 -1.23163554E-02 -5.05389173E-02 -1.39384903E-01 -3.25077495E-01 -2.29848308E-01
  1.09537935E+00  1.00000000E+00  1.00000000E+00  6.26791663E-02  3.33536566E-01
  7.41239642E-01  1.00000000E+00  1.00000000E+00  1.00000000E+00  1.00000000E+00
  7.09645947E-04  5.46727229E-03  2.78231186E-02  1.04747740E-01  2.82920846E-01
  4.48495239E-01  2.70816885E-01  1.54502916E-02 -3.14443412E-04 -2.48213768E-03
 -1.23163554E-02 -5.05389173E-02 -1.39384903E-01 -3.25077495E-01 -2.29848308E-01
  1.09537935E+00  1.00000000E+00  1.00000000E+00  6.26791663E-02  3.33536566E-01
  7.41239642E-01  1.00000000E+00  1.00000000E+00  1.00000000E+00  1.00000000E+00
  8.04880232E-06  6.25830547E-05  3.29023872E-04  1.38735488E-03  5.02325558E-03
  1.61013986E-02  4.59003361E-02  1.13615390E-01  2.28386881E-01  3.22115873E-01
  2.38366080E-01  7.40466637E-02  9.21419622E-02  9.33978921E-02  1.57396487E-02
 -4.18668165E-04  5.37631755E-05 -3.81665368E-05  4.31960264E-05 -4.15593700E-06
 -3.23138778E-05 -1.69951805E-04 -7.17133966E-04 -2.60361435E-03 -8.39907464E-03
 -2.43409904E-02 -6.25192242E-02 -1.36592341E-01 -2.31269754E-01 -2.38372425E-01
  3.12382422E-02  5.08679719E-01  4.98767459E-01  9.03351504E-02 -6.00531243E-03
  2.31244454E-04 -5.64365691E-04  4.99223957E-04  9.53927950E-07  7.42012890E-06
  3.90129731E-05  1.64837913E-04  5.99043957E-04  1.94383709E-03  5.69147401E-03
  1.50244749E-02  3.45502709E-02  6.50065940E-02  7.72194258E-02 -1.87480670E-02
 -3.01142685E-01 -4.55805423E-01  1.28742142E-01  7.18866759E-01  4.05476156E-01
  2.16984233E-02 -8.34978198E-03 -2.78553167E-07 -2.16599429E-06 -1.13938160E-05
 -4.81106712E-05 -1.74989310E-04 -5.67302987E-04 -1.66341909E-03 -4.38678625E-03
 -1.01182283E-02 -1.90395955E-02 -2.28404610E-02  5.69660756E-03  9.22720327E-02
  1.48282201E-01 -5.41307178E-02 -2.93639402E-01 -3.32849490E-01  3.68806068E-01
  7.76154537E-01 -4.04577365E-07 -3.21821470E-06 -1.63781720E-05 -7.22291676E-05
 -2.48633172E-04 -8.62249815E-04 -2.32854686E-03 -6.78938757E-03 -1.37857032E-02
 -3.09004636E-02 -2.65502877E-02 -9.84880934E-03  1.81826802E-01  1.54352369E-01
  5.55540434E-02 -9.63809418E-01  2.61030229E-01  1.85070289E+00 -9.41798953E-01
  1.00000000E+00  1.00000000E+00  4.09999864E-05  3.68999877E-04  2.12899929E-03
  9.36899689E-03  3.30969890E-02  9.44309686E-02  2.08076931E-01  3.32332890E-01
  3.32986889E-01  1.56842948E-01  2.15489928E-02 -2.09499930E-03 -1.73899942E-03
 -2.99999900E-04  2.89999904E-05 -1.50016907E-05 -1.30014652E-04 -7.51084646E-04
 -3.32937522E-03 -1.19133426E-02 -3.49369373E-02 -7.99980157E-02 -1.34651175E-01
 -1.38613622E-01  3.02814127E-02  3.33253557E-01  4.56204414E-01  2.85083128E-01
  4.61492009E-02 -3.24936620E-03  4.20590514E-06  4.06570831E-05  2.31324783E-04
  1.02904479E-03  3.68156897E-03  1.08302057E-02  2.48611053E-02  4.21361597E-02
  4.35928048E-02 -1.40869783E-02 -1.23802220E-01 -1.82009143E-01 -1.07863241E-01
  2.98143998E-01  8.03413403E-01  5.21799259E-06  4.38311377E-05  2.51507243E-04
  1.13230439E-03  3.99802592E-03  1.19210259E-02  2.69164930E-02  4.67719984E-02
  4.65424067E-02 -1.16643006E-02 -1.44156438E-01 -1.96493947E-01 -1.12081437E-01
  4.64258367E-01  6.68152471E-01  1.00000000E+00  1.00000000E+00  3.58588655E-03
  2.61922093E-02  1.00688241E-01  2.42857976E-01  3.62854133E-01  3.67922119E-01
  2.40204623E-01 -5.01135386E-03 -3.66408551E-02 -1.44838433E-01 -3.53315906E-01
 -4.06507112E-01  7.35715701E-02  7.26071743E-01  1.00000000E+00  1.00000000E+00
  4.22249113E-01  7.71468206E-01  1.00000000E+00
Coordinates of each shell                  R   N=         165
  0.00000000E+00  2.58468802E+00  1.82716107E+00  0.00000000E+00  2.58468802E+00
  1.82716107E+00  0.00000000E+00  2.58468802E+00  1.82716107E+00  0.00000000E+00
  2.58468802E+00  1.82716107E+00  0.00000000E+00  2.58468802E+00  1.82716107E+00
  0.00000000E+00  2.58468802E+00  1.82716107E+00  0.00000000E+00  2.58468802E+00
  1.82716107E+00  0.00000000E+00  2.58468802E+00  1.82716107E+00  0.00000000E+00
  2.58468802E+00  1.82716107E+00  0.00000000E+00 -2.58468802E+00  1.82716107E+00
  0.00000000E+00 -2.58468802E+00  1.82716107E+00  0.00000000E+00 -2.58468802E+00
  1.82716107E+00  0.00000000E+00 -2.58468802E+00  1.82716107E+00  0.00000000E+00
 -2.58468802E+00  1.82716107E+00  0.00000000E+00 -2.58468802E+00  1.82716107E+00
  0.00000000E+00 -2.58468802E+00  1.82716107E+00  0.00000000E+00 -2.58468802E+00
  1.82716107E+00  0.00000000E+00 -2.58468802E+00  1.82716107E+00 -2.58492613E+00
  0.00000000E+00 -1.82709871E+00 -2.58492613E+00  0.00000000E+00 -1.82709871E+00
 -2.58492613E+00  0.00000000E+00 -1.82709871E+00 -2.58492613E+00  0.00000000E+00
 -1.82709871E+00 -2.58492613E+00  0.00000000E+00 -1.82709871E+00 -2.58492613E+00
  0.00000000E+00 -1.82709871E+00 -2.58492613E+00  0.00000000E+00 -1.82709871E+00
 -2.58492613E+00  0.00000000E+00 -1.82709871E+00 -2.58492613E+00  0.00000000E+00
 -1.82709871E+00  2.58492613E+00  0.00000000E+00 -1.82709871E+00  2.58492613E+00
  0.00000000E+00 -1.82709871E+00  2.58492613E+00  0.00000000E+00 -1.82709871E+00
  2.58492613E+00  0.00000000E+00 -1.82709871E+00  2.58492613E+00  0.00000000E+00
 -1.82709871E+00  2.58492613E+00  0.00000000E+00 -1.82709871E+00  2.58492613E+00
  0.00000000E+00 -1.82709871E+00  2.58492613E+00  0.00000000E+00 -1.82709871E+00
  2.58492613E+00  0.00000000E+00 -1.82709871E+00  0.00000000E+00  0.00000000E+00
 -3.77945225E-05  0.00000000E+00  0.00000000E+00 -3.77945225E-05  0.00000000E+00
  0.00000000E+00 -3.77945225E-05  0.00000000E+00  0.00000000E+00 -3.77945225E-05
  0.00000000E+00  0.00000000E+00 -3.77945225E-05  0.00000000E+00  0.00000000E+00
 -3.77945225E-05  0.00000000E+00  0.00000000E+00 -3.77945225E-05  0.00000000E+00
  0.00000000E+00 -3.77945225E-05  0.00000000E+00  0.00000000E+00 -3.77945225E-05
  0.00000000E+00  0.00000000E+00 -3.77945225E-05  0.00000000E+00  0.00000000E+00
 -3.77945225E-05  0.00000000E+00  0.00000000E+00 -3.77945225E-05  0.00000000E+00
  0.00000000E+00 -3.77945225E-05  0.00000000E+00  0.00000000E+00 -3.77945225E-05
  0.00000000E+00  0.00000000E+00 -3.77945225E-05  0.00000000E+00  0.00000000E+00
 -3.77945225E-05  0.00000000E+00  0.00000000E+00 -3.77945225E-05  0.00000000E+00
  0.00000000E+00 -3.77945225E-05  0.00000000E+00  0.00000000E+00 -3.77945225E-05
Num ILSW                                   I                0
ILSW                                       I   N=           0
Num RLSW                                   I                0
RLSW                                       R   N=           0
MxBond                                     I                0
NBond                                      I   N=           0
IBond                                      I   N=           0
RBond                                      R   N=           0
SCF Energy                                 R     -1.561544432361953E+03
Total Energy                               R     -1.561544432361953E+03
S**2                                       R      4.351261915004955E+00
Virial Ratio                               R      1.998915098426441E+00
RMS Density                                R      0.000000000000000E+00
Job Status                                 I                1
External E-field                           R   N=          35
  0.00000000E+00  0.00000000E+00  0.00000000E+00  0.00000000E+00  0.00000000E+00
  0.00000000E+00  0.00000000E+00  0.00000000E+00  0.00000000E+00  0.00000000E+00
  0.00000000E+00  0.00000000E+00  0.00000000E+00  0.00000000E+00  0.00000000E+00
  0.00000000E+00  0.00000000E+00  0.00000000E+00  0.00000000E+00  0.00000000E+00
  0.00000000E+00  0.00000000E+00  0.00000000E+00  0.00000000E+00  0.00000000E+00
  0.00000000E+00  0.00000000E+00  0.00000000E+00  0.00000000E+00  0.00000000E+00
  0.00000000E+00  0.00000000E+00  0.00000000E+00  0.00000000E+00  0.00000000E+00
IOpCl                                      I                0
IROHF                                      I                0
Alpha Orbital Energies                     R   N=         151
 -2.60898742E+02 -3.14667431E+01 -2.69651589E+01 -2.69346527E+01 -2.69311431E+01
 -2.01668844E+01 -2.01668822E+01 -2.01652133E+01 -2.01652117E+01 -3.65719111E+00
 -2.29429632E+00 -2.19819865E+00 -2.18042356E+00 -9.04512620E-01 -8.83074385E-01
 -8.82956530E-01 -8.82758647E-01 -2.68494634E-01 -2.35615676E-01 -2.07188149E-01
 -2.00902924E-01 -1.69493324E-01 -1.67559935E-01 -1.44322362E-01 -1.43024096E-01
 -1.40764237E-01 -1.28977015E-01 -9.38859882E-02 -8.40715595E-02 -4.36528289E-02
 -9.16653774E-03  2.13430418E-01  2.13469939E-01  2.14164745E-01  2.17756533E-01
  3.28565823E-01  3.31610361E-01  3.49819261E-01  3.50165287E-01  3.50601447E-01
  3.92322465E-01  3.96061899E-01  3.96151762E-01  3.98821618E-01  5.71270184E-01
  5.72087038E-01  5.76809368E-01  5.80998713E-01  5.89129950E-01  5.89480246E-01
  5.90085896E-01  6.00868127E-01  6.12601148E-01  6.24536653E-01  6.25083956E-01
  6.31822864E-01  6.97959446E-01  6.97987135E-01  6.98570460E-01  7.06310241E-01
  7.48267007E-01  7.50202524E-01  7.52656626E-01  8.46760323E-01  8.47196174E-01
  8.50806178E-01  9.32672830E-01  9.55939111E-01  1.07346877E+00  1.07348434E+00
  1.08060697E+00  1.11642074E+00  1.40830335E+00  1.41067409E+00  1.41075410E+00
  1.44487949E+00  1.45001667E+00  1.45689416E+00  1.46424857E+00  1.46916519E+00
  1.47844736E+00  1.49539564E+00  1.49585410E+00  1.50999688E+00  1.53450387E+00
  1.54216842E+00  1.59467464E+00  1.61476749E+00  1.61609801E+00  1.67895042E+00
  1.67930526E+00  1.69512535E+00  1.82009759E+00  1.82035762E+00  1.82544318E+00
  1.83349804E+00  1.85592964E+00  1.86335417E+00  1.97156178E+00  1.97195598E+00
  2.01193647E+00  2.01225657E+00  2.01630770E+00  2.02790322E+00  2.11302380E+00
  2.11973524E+00  2.13876914E+00  2.19560511E+00  2.20385184E+00  2.20504586E+00
  2.20865140E+00  2.28169102E+00  2.28350409E+00  2.29144123E+00  3.06442979E+00
  3.07384175E+00  3.07568651E+00  3.16143664E+00  3.19336668E+00  3.29055861E+00
  3.83482567E+00  3.84528656E+00  3.84953417E+00  3.88406276E+00  3.97111135E+00
  3.97679184E+00  3.97916638E+00  3.98531092E+00  4.01635248E+00  4.03738447E+00
  4.04772833E+00  4.08606200E+00  4.08733902E+00  4.09206764E+00  4.09963823E+00
  4.10479726E+00  4.10859797E+00  4.14785928E+00  4.15759975E+00  4.19378712E+00
  4.19471032E+00  4.39784411E+00  4.41680792E+00  4.42454835E+00  4.71123525E+00
  4.75674272E+00  4.78744351E+00  5.02665188E+00  5.04508330E+00  5.05945945E+00
  5.20332810E+00
Beta Orbital Energies                      R   N=         151
 -2.60900657E+02 -3.15064217E+01 -2.69943928E+01 -2.69885351E+01 -2.69665684E+01
 -2.01306613E+01 -2.01306599E+01 -2.01261919E+01 -2.01261891E+01 -3.77624912E+00
 -2.41056285E+00 -2.39009320E+00 -2.30202590E+00 -7.59278514E-01 -7.35577553E-01
 -7.30441050E-01 -7.29358565E-01 -2.40690701E-01 -2.18800108E-01 -1.80307219E-01
 -1.25100679E-01 -1.00856451E-01 -8.76046475E-02 -8.46511904E-02 -6.21796942E-02
 -3.56976253E-02  2.38232809E-02  4.29751925E-02  6.99935393E-02  2.13307390E-01
  2.13415042E-01  2.14266504E-01  2.17633849E-01  3.26362911E-01  3.31707401E-01
  3.50210998E-01  3.50499229E-01  3.51164367E-01  3.87375843E-01  3.87687303E-01
  3.92902663E-01  4.00172189E-01  4.91400088E-01  4.97242874E-01  4.97669787E-01
  5.06541555E-01  5.75762497E-01  5.78894302E-01  5.80259037E-01  5.90330535E-01
  6.00652284E-01  6.03172909E-01  6.09828417E-01  6.29447738E-01  6.54311351E-01
  6.61154055E-01  6.64042929E-01  6.82069763E-01  6.94099768E-01  7.04049931E-01
  7.38017378E-01  7.56324006E-01  7.57616646E-01  8.22104974E-01  8.22366769E-01
  8.26880803E-01  9.61632754E-01  9.86207637E-01  1.06972700E+00  1.06993631E+00
  1.07391931E+00  1.10354134E+00  1.43625308E+00  1.43638698E+00  1.43767741E+00
  1.43839618E+00  1.44463076E+00  1.44495380E+00  1.49897860E+00  1.50053711E+00
  1.50237798E+00  1.50961654E+00  1.50998031E+00  1.54291541E+00  1.54842774E+00
  1.54944888E+00  1.63491355E+00  1.63812575E+00  1.64855768E+00  1.70315589E+00
  1.71603945E+00  1.71626077E+00  1.82701098E+00  1.82721842E+00  1.83104401E+00
  1.89388401E+00  1.90370692E+00  1.94017109E+00  1.98700462E+00  2.01250319E+00
  2.02174579E+00  2.02385238E+00  2.04333323E+00  2.09620554E+00  2.15145929E+00
  2.16751495E+00  2.17038493E+00  2.21327081E+00  2.21422528E+00  2.21492215E+00
  2.21957903E+00  2.31102979E+00  2.31216026E+00  2.31266820E+00  3.04507060E+00
  3.05298293E+00  3.06093647E+00  3.19361305E+00  3.20833318E+00  3.25602925E+00
  3.84662872E+00  3.84823764E+00  3.85888332E+00  3.90383266E+00  4.00787167E+00
  4.04976273E+00  4.05296757E+00  4.05613005E+00  4.10547812E+00  4.10710711E+00
  4.11964691E+00  4.13554148E+00  4.16492682E+00  4.16582120E+00  4.16909417E+00
  4.17317460E+00  4.17650106E+00  4.17749124E+00  4.22991970E+00  4.23391879E+00
  4.23705759E+00  4.36517316E+00  4.38976645E+00  4.39687169E+00  4.64612933E+00
  4.65528948E+00  4.72328032E+00  5.00879534E+00  5.02357436E+00  5.04336616E+00
  5.10469769E+00
Alpha MO coefficients                      R   N=       22801
  2.58390929E-08  1.87310529E-07 -6.31463821E-06  1.60564823E-05 -2.42376013E-16
  2.02677096E-07  1.98798375E-07  3.53961824E-15  2.04177032E-06  9.25200458E-07
 -6.43109273E-16 -5.14117724E-06 -3.71548502E-06 -1.67771355E-08 -1.63324410E-16
  4.02555625E-07 -3.10701922E-07  1.52877226E-16  2.98470530E-07 -1.38545410E-15
  1.07376803E-06 -4.32337689E-07 -2.99534005E-15  2.58390059E-08  1.87310377E-07
 -6.31463761E-06  1.60564828E-05 -3.08052420E-16 -2.02677102E-07  1.98798380E-07
  3.80777822E-15 -2.04176985E-06  9.25200123E-07 -4.65822898E-16  5.14117731E-06
 -3.71548506E-06 -1.67771372E-08 -1.11932740E-16 -4.02555648E-07 -3.10701937E-07
 -1.61022427E-16  2.98470531E-07 -1.70872086E-15 -1.07376821E-06 -4.32337834E-07
  3.17174940E-15  5.92405324E-07  1.18041595E-06 -1.02995567E-05  1.14680028E-05
 -1.57680421E-07 -6.90137683E-16 -1.42415379E-07 -4.90674530E-06  2.45430644E-14
 -3.36179957E-06  4.21485872E-06  2.37552439E-15  3.10433096E-06 -1.43609821E-08
  2.54791767E-07 -1.23790333E-15  2.05672232E-07  3.51554559E-16  1.57621458E-08
 -2.12746980E-07  1.28929736E-14 -2.43770681E-07  1.29436947E-14  5.92405330E-07
  1.18041596E-06 -1.02995568E-05  1.14680027E-05  1.57680420E-07 -6.02707178E-16
 -1.42415379E-07  4.90674533E-06  2.38426933E-14 -3.36179960E-06 -4.21485870E-06
  2.19029352E-15  3.10433094E-06 -1.43609820E-08 -2.54791766E-07 -1.19171275E-15
  2.05672231E-07 -3.99916676E-16  1.57621472E-08  2.12746991E-07  1.25410680E-14
 -2.43770690E-07 -1.25171833E-14  9.83546385E-01 -1.80653065E-01 -4.28585844E-04
 -4.48496046E-05  2.20942106E-05  1.71916088E-05 -2.95872991E-06 -5.82765081E-15
 -1.26956746E-13  1.10086474E-06  2.70332257E-14  1.85833148E-14 -1.29118383E-06
  6.48279863E-14 -1.58978551E-12  7.05358723E-06 -1.43946454E-14  2.05317449E-12
 -1.18997656E-05  1.07073549E-14  8.04288056E-14 -9.06240848E-07 -2.60974017E-15
 -1.40126126E-14  1.83816696E-07 -6.45628997E-08 -7.75136562E-15  1.11367231E-13
  9.35680056E-07  1.11405319E-16  9.81120793E-07 -2.78823152E-14  3.41198433E-13
  3.28100101E-06  8.33649478E-16  2.58732985E-07 -1.33827954E-14  3.79262132E-14
  6.86256413E-07  2.70494412E-16  4.90268896E-08  5.37781152E-16  1.66207523E-14
  8.24169603E-08  5.33555071E-17  6.05184705E-07  5.84124529E-15  4.66309761E-14
 -5.52426705E-07  4.06112898E-16  5.85403834E-16 -9.48399227E-15  5.45262056E-07
  9.95361485E-16  2.02561459E-14 -6.47183294E-06 -3.33516322E-16  7.27898378E-15
 -7.03787161E-14 -3.07536900E-05 -5.58292226E-05  3.51027311E-04  9.45077491E-04
 -1.31271155E-14 -4.72175468E-06  1.54235682E-05  4.43065646E-13 -1.60233606E-04
 -2.80890555E-04  6.16186937E-15 -2.26030080E-04 -1.80186454E-04 -5.15016354E-06
  6.69391344E-15  7.73407374E-08 -6.71995141E-06 -1.56761017E-14  8.59571018E-05
 -3.30339922E-13  9.98024291E-05  3.33582395E-05 -1.81168797E-13 -3.07536990E-05
 -5.58292381E-05  3.51027396E-04  9.45077653E-04 -3.55349537E-14  4.72175361E-06
  1.54235674E-05  6.43626576E-13  1.60233668E-04 -2.80890583E-04  5.23061948E-14
  2.26030120E-04 -1.80186482E-04 -5.15016305E-06  1.71853683E-14 -7.73423307E-08
 -6.71995251E-06  4.43683170E-15  8.59570925E-05 -4.29475928E-13 -9.98024430E-05
  3.33582222E-05  3.04326920E-13  5.04913631E-05  8.55756374E-05 -4.02302358E-04
 -2.42089062E-04 -1.56259155E-06 -7.84235740E-13 -4.48061209E-06 -2.49755289E-04
  7.49184283E-12 -1.91801524E-04 -4.77789865E-05 -4.56722528E-13 -1.05809994E-05
 -1.45322592E-06 -1.50521874E-05  7.45446081E-14 -4.55170735E-06 -3.24238825E-13
 -9.52257170E-06 -1.13134488E-04  4.41002251E-12 -7.87629871E-05  5.66969790E-12
  5.04913645E-05  8.55756398E-05 -4.02302369E-04 -2.42089074E-04  1.56259147E-06
 -7.67348522E-13 -4.48061214E-06  2.49755297E-04  7.41842334E-12 -1.91801529E-04
  4.77789888E-05 -5.00992093E-13 -1.05810010E-05 -1.45322593E-06  1.50521877E-05
  8.61922465E-14 -4.55170754E-06  3.19494695E-13 -9.52257103E-06  1.13134490E-04
  4.32534813E-12 -7.87629897E-05 -5.62297386E-12  1.80612770E-01  9.83435867E-01
  3.86894429E-03 -1.56314605E-03  4.79712411E-04 -1.50350010E-04  6.80964965E-05
 -1.39060365E-11  1.26294951E-10 -4.84280012E-04  2.11575971E-12  5.03458733E-11
 -4.40987474E-04 -1.40754821E-11  1.60439887E-10 -7.47997912E-04  2.33835580E-11
 -7.87844646E-11 -2.13925358E-04  1.71890334E-12  1.71047955E-11 -1.92189212E-04
 -3.53510087E-13 -4.36870829E-12  4.60873096E-05 -1.06563249E-04 -1.01593704E-13
 -7.28796990E-12 -9.35758353E-05 -2.90320382E-14  2.87728946E-04 -7.43678862E-12
  6.25555518E-11  7.65731552E-04  2.72664902E-13  5.53759221E-05 -1.80301835E-12
  2.65182261E-11  2.77673797E-04  6.82872203E-14  1.04368472E-05 -1.40165879E-13
 -1.51402620E-12 -7.37776373E-06  1.33410255E-14 -4.09630743E-05 -4.75833031E-13
 -1.99981692E-12  6.88943454E-05 -9.12551864E-14 -1.17426430E-13 -1.09199093E-12
  2.31578195E-04  1.70728871E-12  1.35183952E-11  5.75200479E-06  9.74204438E-14
  1.42593221E-12 -1.19185241E-11 -5.73611614E-05 -9.90877396E-05 -8.76884264E-05
 -4.67107718E-04  9.46600295E-14  1.05897935E-05  2.61148374E-05 -1.31718289E-12
 -1.71772873E-05 -3.94817591E-04 -1.06368357E-13  1.53615819E-04  7.12661480E-05
 -1.49794432E-05 -1.13671866E-14  3.27553537E-05 -2.56144911E-05 -8.39362584E-14
  1.34198916E-04  2.41823918E-13  1.83707962E-04 -3.40025502E-05  7.47953584E-13
  5.73611743E-05  9.90877605E-05  8.76884502E-05  4.67107675E-04 -7.88051380E-14
  1.05897978E-05 -2.61148380E-05  1.04883252E-12 -1.71773423E-05  3.94817595E-04
  6.67501556E-14  1.53615801E-04 -7.12661454E-05  1.49794431E-05  5.87200266E-15
  3.27553659E-05  2.56144979E-05 -7.39557749E-14 -1.34198912E-04 -1.41197459E-13
  1.83707974E-04  3.40025822E-05  6.54401653E-13  1.76980069E-12  2.64962055E-12
 -2.20680251E-11 -1.00854224E-10 -1.55821077E-12 -1.07623745E-05  2.15385401E-13
 -1.98041354E-12  3.80207383E-05 -1.86008033E-11 -2.47320442E-11  4.99388451E-05
 -2.23595312E-11  1.64167875E-13 -1.44356482E-12 -1.18397665E-05 -1.91517180E-12
  4.86238452E-06 -1.75012858E-12 -5.31134062E-12  1.07934770E-04  8.02106053E-12
 -5.95350542E-05  1.77254640E-12  2.65356356E-12 -2.17502918E-11 -1.00435123E-10
  1.54717272E-12 -1.07623745E-05  2.17267098E-13  2.00418408E-12  3.80207398E-05
 -1.84226687E-11  2.46309148E-11  4.99388450E-05 -2.23143624E-11  1.49396904E-13
  1.45506314E-12 -1.18397665E-05 -1.93402931E-12 -4.86238440E-06 -1.62112690E-12
  5.34496804E-12  1.07934770E-04  8.04506556E-12  5.95350533E-05 -1.92065448E-11
 -1.23434672E-10  1.30748330E-10  1.97301275E-10 -8.56858361E-12  3.86760904E-11
 -1.38464651E-11 -1.69058282E-10  9.99971125E-01 -4.84925255E-08 -1.08384438E-12
  7.46677910E-03 -3.66349175E-10 -4.41826117E-13  4.37096237E-03 -3.33678123E-10
  2.25740381E-13 -4.26586518E-03  3.00211467E-10 -3.43113325E-14  1.52421733E-05
 -5.58914967E-12  1.28796430E-14 -2.60965710E-05  3.19816270E-12 -8.90835280E-14
 -3.02116923E-14 -1.50107089E-04 -1.13382697E-11 -7.40483816E-14  1.02055549E-13
  1.65767219E-13 -3.34417381E-05  1.80354855E-11  7.87244556E-13  1.87457159E-13
  1.92163627E-13  5.57632490E-04  5.49740168E-11  2.36388489E-13  3.72388385E-14
 -1.26190757E-14 -6.59898489E-05 -5.42595064E-12  4.68057805E-14 -1.06963055E-10
 -7.11818289E-14 -1.26472803E-03 -7.92724765E-11 -4.21773171E-12  5.38940244E-13
  4.89604208E-04  6.90349885E-11  8.64059047E-14  8.83232169E-04  3.11012997E-11
  3.26695615E-12 -4.10957092E-13 -1.79559572E-04 -2.43783727E-05 -4.02948128E-05
 -1.52402790E-04  4.79498237E-04 -2.43873443E-13  1.23338665E-05  4.62963657E-06