[Molden Format]
made by pyscf v[2.4.0]
[Atoms] (AU)
O   1   8     0.00000000000000     2.58468802468286     1.82716107203296
O   2   8     0.00000000000000    -2.58468802468286     1.82716107203296
O   3   8    -2.58492613017456     0.00000000000000    -1.82709871107085
O   4   8     2.58492613017456     0.00000000000000    -1.82709871107085
Fe   5   26     0.00000000000000     0.00000000000000    -0.00003779452249
[GTO]
1 0
 s    8 1.00
                 11720  0.00070964594651845
                  1759  0.0054672722921914
                 400.8   0.027823118610189
                 113.7    0.10474773971146
                 37.03    0.28292084635691
                 13.27    0.44849523869833
                 5.025    0.27081688521277
                 1.013    0.01545029160744
 s    8 1.00
                 11720  -0.00031444341168873
                  1759  -0.0024821376810179
                 400.8  -0.012316355381583
                 113.7  -0.050538917343672
                 37.03   -0.13938490331632
                 13.27   -0.32507749481778
                 5.025   -0.22984830758785
                 1.013     1.0953793467883
 s    1 1.00
                0.3023                   1
 s    1 1.00
               0.07896                   1
 p    3 1.00
                  17.7   0.062679166281506
                 3.854    0.33353656587936
                 1.046    0.74123964163973
 p    1 1.00
                0.2753                   1
 p    1 1.00
               0.06856                   1
 d    1 1.00
                 1.185                   1
 d    1 1.00
                 0.332                   1

2 0
 s    8 1.00
                 11720  0.00070964594651845
                  1759  0.0054672722921914
                 400.8   0.027823118610189
                 113.7    0.10474773971146
                 37.03    0.28292084635691
                 13.27    0.44849523869833
                 5.025    0.27081688521277
                 1.013    0.01545029160744
 s    8 1.00
                 11720  -0.00031444341168873
                  1759  -0.0024821376810179
                 400.8  -0.012316355381583
                 113.7  -0.050538917343672
                 37.03   -0.13938490331632
                 13.27   -0.32507749481778
                 5.025   -0.22984830758785
                 1.013     1.0953793467883
 s    1 1.00
                0.3023                   1
 s    1 1.00
               0.07896                   1
 p    3 1.00
                  17.7   0.062679166281506
                 3.854    0.33353656587936
                 1.046    0.74123964163973
 p    1 1.00
                0.2753                   1
 p    1 1.00
               0.06856                   1
 d    1 1.00
                 1.185                   1
 d    1 1.00
                 0.332                   1

3 0
 s    8 1.00
                 11720  0.00070964594651845
                  1759  0.0054672722921914
                 400.8   0.027823118610189
                 113.7    0.10474773971146
                 37.03    0.28292084635691
                 13.27    0.44849523869833
                 5.025    0.27081688521277
                 1.013    0.01545029160744
 s    8 1.00
                 11720  -0.00031444341168873
                  1759  -0.0024821376810179
                 400.8  -0.012316355381583
                 113.7  -0.050538917343672
                 37.03   -0.13938490331632
                 13.27   -0.32507749481778
                 5.025   -0.22984830758785
                 1.013     1.0953793467883
 s    1 1.00
                0.3023                   1
 s    1 1.00
               0.07896                   1
 p    3 1.00
                  17.7   0.062679166281506
                 3.854    0.33353656587936
                 1.046    0.74123964163973
 p    1 1.00
                0.2753                   1
 p    1 1.00
               0.06856                   1
 d    1 1.00
                 1.185                   1
 d    1 1.00
                 0.332                   1

4 0
 s    8 1.00
                 11720  0.00070964594651845
                  1759  0.0054672722921914
                 400.8   0.027823118610189
                 113.7    0.10474773971146
                 37.03    0.28292084635691
                 13.27    0.44849523869833
                 5.025    0.27081688521277
                 1.013    0.01545029160744
 s    8 1.00
                 11720  -0.00031444341168873
                  1759  -0.0024821376810179
                 400.8  -0.012316355381583
                 113.7  -0.050538917343672
                 37.03   -0.13938490331632
                 13.27   -0.32507749481778
                 5.025   -0.22984830758785
                 1.013     1.0953793467883
 s    1 1.00
                0.3023                   1
 s    1 1.00
               0.07896                   1
 p    3 1.00
                  17.7   0.062679166281506
                 3.854    0.33353656587936
                 1.046    0.74123964163973
 p    1 1.00
                0.2753                   1
 p    1 1.00
               0.06856                   1
 d    1 1.00
                 1.185                   1
 d    1 1.00
                 0.332                   1

5 0
 s   19 1.00
               4316265  8.0488023199039e-06
              646342.4  6.2583054711947e-05
              147089.7  0.00032902387219861
              41661.52  0.0013873548827733
              13590.77  0.0050232555755522
               4905.75   0.016101398639487
              1912.746   0.045900336121579
              792.6043    0.11361539039989
              344.8065    0.22838688070209
              155.8999    0.32211587278232
              72.23091    0.23836607985889
              32.72506   0.074046663743311
              15.66762   0.092141962214321
              7.503483   0.093397892108199
              3.312223   0.015739648670054
              1.558471  -0.00041866816462398
              0.683914  5.3763175457196e-05
              0.146757  -3.8166536775059e-05
              0.070583  4.3196026350084e-05
 s   19 1.00
               4316265  -4.1559369962002e-06
              646342.4  -3.2313877789452e-05
              147089.7  -0.00016995180465104
              41661.52  -0.00071713396588372
              13590.77  -0.0026036143474475
               4905.75  -0.0083990746356235
              1912.746  -0.024340990410105
              792.6043   -0.06251922420585
              344.8065   -0.13659234113955
              155.8999   -0.23126975377185
              72.23091   -0.23837242471164
              32.72506   0.031238242190359
              15.66762    0.50867971876342
              7.503483    0.49876745931891
              3.312223   0.090335150398436
              1.558471  -0.0060053124295769
              0.683914  0.00023124445387536
              0.146757  -0.00056436569092716
              0.070583  0.00049922395745117
 s   19 1.00
               4316265  9.5392794968425e-07
              646342.4  7.4201288995743e-06
              147089.7  3.9012973126954e-05
              41661.52  0.00016483791324274
              13590.77  0.00059904395703174
               4905.75  0.0019438370854879
              1912.746   0.005691474006023
              792.6043   0.015024474939216
              344.8065   0.034550270877518
              155.8999   0.065006594024135
              72.23091    0.07721942584146
              32.72506  -0.018748066959575
              15.66762   -0.30114268504749
              7.503483   -0.45580542340238
              3.312223    0.12874214182054
              1.558471    0.71886675886813
              0.683914    0.40547615588353
              0.146757    0.02169842334627
              0.070583  -0.0083497819778808
 s   19 1.00
               4316265  -2.7855316684837e-07
              646342.4  -2.1659942913938e-06
              147089.7  -1.1393815969693e-05
              41661.52  -4.8110671166032e-05
              13590.77  -0.00017498931033188
               4905.75  -0.00056730298734717
              1912.746  -0.0016634190856823
              792.6043  -0.0043867862458281
              344.8065  -0.010118228343349
              155.8999  -0.019039595468327
              72.23091  -0.022840460969647
              32.72506  0.0056966075590623
              15.66762   0.092272032737637
              7.503483    0.14828220074088
              3.312223  -0.054130717799492
              1.558471   -0.29363940203754
              0.683914   -0.33284949014195
              0.146757    0.36880606827045
              0.070583    0.77615453677882
 s   19 1.00
               4316265  -4.0457736469034e-07
              646342.4  -3.2182147037811e-06
              147089.7  -1.6378172028258e-05
              41661.52  -7.2229167603371e-05
              13590.77  -0.00024863317185672
               4905.75  -0.00086224981539081
              1912.746  -0.0023285468621802
              792.6043  -0.0067893875672321
              344.8065    -0.0137857032153
              155.8999  -0.030900463570667
              72.23091  -0.026550287703751
              32.72506  -0.0098488093433088
              15.66762    0.18182680231062
              7.503483    0.15435236850623
              3.312223   0.055554043395676
              1.558471   -0.96380941837406
              0.683914    0.26103022908272
              0.146757     1.8507028943296
              0.070583   -0.94179895310717
 s    1 1.00
              0.031449                   1
 s    1 1.00
               0.01401                   1
 p   15 1.00
              17745.69  4.0999986375771e-05
              4200.721  0.00036899987738194
              1364.429   0.002128999292537
              522.0806  0.0093689968866974
              221.4595   0.033096989001924
              100.9096   0.094430968620741
              48.40115    0.20807693085637
              23.98536    0.33233288956632
               12.1825    0.33298688934899
              6.242298    0.15684294788134
              3.110944   0.021548992839304
              1.509958  -0.0020949993038351
              0.710845  -0.0017389994221333
               0.27319  -0.00029999990031052
              0.104233  2.899999036335e-05
 p   15 1.00
              17745.69  -1.5001690667838e-05
              4200.721  -0.0001300146524546
              1364.429  -0.00075108464610309
              522.0806  -0.0033293752155489
              221.4595  -0.011913342615686
              100.9096  -0.034936937339972
              48.40115  -0.079998015655313
              23.98536   -0.13465117498367
               12.1825    -0.1386136215454
              6.242298   0.030281412669387
              3.110944    0.33325355717162
              1.509958    0.45620441354709
              0.710845    0.28508312843719
               0.27319   0.046149200945115
              0.104233  -0.0032493661986537
 p   15 1.00
              17745.69  4.2059051436175e-06
              4200.721  4.0657083054969e-05
              1364.429  0.00023132478289896
              522.0806  0.0010290447918051
              221.4595  0.0036815689690465
              100.9096   0.010830205744815
              48.40115   0.024861105303923
              23.98536   0.042136159697141
               12.1825   0.043592804845214
              6.242298  -0.014086978294356
              3.110944   -0.12380221987076
              1.509958   -0.18200914312166
              0.710845   -0.10786324134483
               0.27319    0.29814399791561
              0.104233    0.80341340250219
 p   15 1.00
              17745.69  5.2179925883807e-06
              4200.721  4.3831137742398e-05
              1364.429  0.00025150724275995
              522.0806  0.0011323043916786
              221.4595  0.0039980259212173
              100.9096   0.011921025867415
              48.40115   0.026916492967903
              23.98536   0.046771998365209
               12.1825   0.046542406691321
              6.242298  -0.011664300632066
              3.110944   -0.14415643764068
              1.509958   -0.19649394690065
              0.710845    -0.1120814371999
               0.27319    0.46425836736896
              0.104233    0.66815247135846
 p    1 1.00
              0.038291                   1
 p    1 1.00
               0.01407                   1
 d    7 1.00
               113.344  0.0035858865538461
               33.6414   0.026192209321351
                12.331    0.10068824060359
               4.99478     0.2428579762288
                2.0728    0.36285413346948
              0.830753    0.36792211874346
              0.309178    0.24020462334533
 d    7 1.00
               113.344  -0.0050113538596978
               33.6414   -0.03664085513561
                12.331   -0.14483843267146
               4.99478   -0.35331590629798
                2.0728   -0.40650711182833
              0.830753   0.073571570070304
              0.309178    0.72607174312111
 d    1 1.00
               0.10013                   1
 d    1 1.00
               0.03243                   1
 f    2 1.00
                3.2243    0.42224911271107
                0.7758    0.77146820592821
 f    1 1.00
                0.2749                   1

[5d]
[7f]
[9g]

[MO]
 Sym= A
 Ene= -1.043741469e-16
 Spin= Alpha
 Occup=   -0.00000
   1    0.0001211172001501
   2    0.00018318996212658
   3    9.448488711079e-05
   4    0.00037705791242518
   5    -0.00015700494140088
   6    -0.00014691532555666
   7    2.1220354445119e-05
   8    0.00082369060422513
   9    -0.00013379580490125
  10    9.5988275193331e-05
  11    0.0022373858657429
  12    5.1859847674369e-06
  13    -0.0004119867518963
  14    -2.8346421908615e-05
  15    9.758705192048e-06
  16    4.0140606777365e-05
  17    -4.1938282180857e-06
  18    7.5338585092814e-05
  19    -0.0001183262233465
  20    -0.00014502900440002
  21    -7.4499620362694e-05
  22    -0.00015145059051832
  23    -8.9557144478988e-06
  24    -0.015176433220356
  25    0.0097333115048402
  26     0.011011884760906
  27    0.0026759486803103
  28    -0.0039752810582129
  29    -0.0060628845786371
  30    -0.018553070442472
  31    -0.0037336794824756
  32    -0.0044033707854285
  33    -0.013585330602042
  34    -0.0024306458005879
  35    -0.0014810220048758
  36    -0.0047850655106826
  37    1.9613886844296e-05
  38    -1.4530784027118e-05
  39    -0.00016704043287023
  40    0.00018874859151789
  41    6.5337093676956e-05
  42    0.00018498134767498
  43    0.00024217405470814
  44    -0.00027617068801063
  45    3.9443619573124e-05
  46    -0.00021536924596987
  47      0.16510726185424
  48    -0.0025249795043812
  49    -0.0051400024211823
  50    -0.00061639035450757
  51    -0.020381107961356
  52    -0.039297044917795
  53     0.013969576816642
  54    -0.015783264203596
  55    -0.028800785598801
  56     0.010218012891181
  57    -0.0047937771272923
  58    -0.0079066398604043
  59    0.0039147722155417
  60    0.00024952074643678
  61    -0.00029119220371147
  62    -0.00013183990520123
  63    -0.00031527973415961
  64    -0.00023456991468343
  65    0.00053580833566376
  66    -0.00047639803593574
  67    -0.00078757463392497
  68    -0.00090414701889367
  69    -0.00086500998708865
  70     0.066280042337963
  71    -0.012451318278726
  72    -0.016446522055592
  73    -0.0046803021632554
  74    -0.012181517214744
  75     0.053873908997513
  76    -0.0051263517642271
  77    -0.0073955913345437
  78     0.038919056207558
  79    -0.0042215662811915
  80    -0.0016412558513896
  81      0.01003516888012
  82    -0.0018747333594965
  83    7.7301935540171e-05
  84    -4.2003244655576e-05
  85    0.00020749803496909
  86    0.00038914481981263
  87    -0.00037770581136063
  88    0.00019642764476775
  89    3.5892068554665e-05
  90    0.00083396108890545
  91    1.4628993175445e-05
  92    -0.001079276470528
  93     0.030170533948715
  94      0.16422760860146
  95    -0.047271675202784
  96    0.0022500515212442
  97     0.001150521792032
  98    -5.4192820892996e-05
  99    7.3696545201926e-05
 100     -0.89227686737017
 101     0.017028192896831
 102      -0.3506233791196
 103     0.058465739899492
 104      0.01071403682435
 105     0.029414711223758
 106     0.013207701653565
 107    0.0052711466174003
 108    -0.0015905611986072
 109    -0.013031289751494
 110    -0.0050168880476503
 111    -0.0010477187948387
 112    0.0011169026754937
 113    0.00035581035148629
 114    -0.00010917840825044
 115    -0.00021033500477536
 116    -0.00011655520018185
 117    -6.8002039663607e-05
 118    0.0021523823959908
 119    -0.0044038933379751
 120    -0.0021208864888087
 121    0.00030146121995143
 122    -0.017207001042118
 123    -0.00015873505529603
 124    -0.00073777485887738
 125    -0.00026830707545767
 126    -0.00028828009589528
 127    0.00060472275112465
 128    0.0012988222575508
 129    -0.000794040221925
 130    0.00028316810653085
 131    0.0007248866255608
 132    -0.0052864927611248
 133    0.00041011165287363
 134    0.00012785207084792
 135    -5.8784758029205e-05
 136    4.9657179784702e-06
 137    -0.0015955258083271
 138    4.5689552649226e-05
 139    0.00033312852583151
 140    -0.00010152901654138
 141    -1.7451868599628e-05
 142    -0.000609807739993
 143    -0.00027589972819283
 144    0.00030817118189677
 145    -0.00033941796844836
 146    0.00067859290929226
 147    0.00014187691728726
 148    -0.00028786859172443
 149    -0.00057753356690581
 150    -0.00036991849466817
 151    0.00031329094568597
 Sym= A
 Ene= -3.748516872e-17
 Spin= Alpha
 Occup=   -0.00000
   1    4.188781576443e-05
   2    9.1440100364003e-05
   3    6.6461199574191e-05
   4    -0.0053817669982476
   5    -0.00025230131312544
   6    9.9465819674783e-05
   7    -0.00032372247709636
   8    0.00033712433245342
   9    0.00038436372945079
  10    -0.0004626301335274
  11    0.0027423502782724
  12    0.0012782154300164
  13    0.0026911550320668
  14    8.9750249834633e-05
  15    -2.5932554317868e-06
  16    1.5492637799045e-05
  17    -7.1960628511318e-05
  18    8.6090585419624e-05
  19    0.0004586091711993
  20    9.6399895343576e-05
  21    0.00063146047225589
  22    0.00027189592265916
  23    0.00016882501116267
  24      0.19572899136355
  25     -0.03120545847384
  26    -0.037042148288689
  27    -0.0090403713317933
  28    -0.073704937186071
  29     0.027337410735374
  30     0.035540141066447
  31    -0.053935536248132
  32     0.019587800729244
  33     0.026387412641908
  34    -0.014008876713867
  35    0.0059904310346941
  36     0.010963598067914
  37    5.3401014339285e-05
  38    0.00032609862300156
  39    0.00031961232169857
  40    -0.00065273702749227
  41    -0.00041517984025173
  42    -0.00027532465240655
  43    0.0016097712179195
  44    0.0003955716503254
  45    -0.00025788563618987
  46    -0.0016758169346963
  47      -0.2623446036977
  48     0.038370803563174
  49     0.049602764173711
  50     0.012816077525585
  51     0.053902380243948
  52    -0.068889776681496
  53    -0.040320133041778
  54     0.043350084029537
  55    -0.049992434497143
  56    -0.029194144740369
  57     0.015098676576593
  58    -0.012813395859602
  59    -0.0096700879474569
  60    -0.0011894914200886
  61    0.0004511245573396
  62    -0.00032053499739154
  63    -0.00022157991916705
  64    -0.00048619711461957
  65    -0.0021423975174964
  66    0.00074142359923264
  67    -0.0010786065635675
  68    0.0017221841065469
  69    -0.0015587842288029
  70     -0.13251583720405
  71    0.0039345367945593
  72     0.006218993520671
  73    -0.0019165712587752
  74    -0.016359086158638
  75    -0.00016277973822773
  76     0.021414462710482
  77    -0.013437249003877
  78    0.0011197241801202
  79     0.014733429042234
  80    -0.0023477056086455
  81    0.0030831893944809
  82    0.0033339577479826
  83    4.0137938538729e-05
  84    -0.00048031124195509
  85    -5.3032089621927e-05
  86    0.00029296587747138
  87    0.00010559107721676
  88    -0.00051137104996259
  89    -0.0006148461223499
  90    0.00039958914652047
  91    0.0015567490068273
  92    -2.2513424350026e-06
  93    0.0036770064480813
  94     0.022025893173477
  95    -0.032273284805223
  96    0.00023159880887388
  97    -0.0006342729201564
  98    0.00016521010832759
  99    -0.00033844344843704
 100     -0.35579283620316
 101     -0.37009878558433
 102      0.74575120927635
 103     0.023823027532239
 104     0.033819618347028
 105    -0.035805538131297
 106     0.023960092585521
 107    0.0032119716707526
 108     0.020448253647483
 109    -0.017586622325004
 110    -0.0041047067592891
 111      -0.0144585162264
 112    0.00054079814504778
 113    -7.759316008078e-05
 114    0.0010969974012246
 115    5.4955003372552e-05
 116    0.00012829790380798
 117    5.3599692645549e-05
 118    -0.0064073179340294
 119    0.00042451220953273
 120    0.0035800960721182
 121     0.002780286070776
 122    -0.020054362949538
 123    0.00043513855668329
 124    -1.7369426225866e-06
 125    0.00054634070969894
 126    0.00085185143235248
 127    0.00079045426684337
 128    -0.0045609714453079
 129    -0.0015101901343479
 130    -0.00069962945203195
 131    -0.0021736138825421
 132    -0.0074828946621587
 133    -0.0014186176972918
 134    0.00016521601917776
 135    -2.2347638807116e-05
 136    0.00011699239617439
 137    -0.0022957780529649
 138    0.00053079273204085
 139    -0.00088855923021114
 140    -0.00076983474891224
 141    -0.00079106596952163
 142    4.6416850871806e-05
 143    0.00064251736707049
 144    -0.00075271131192192
 145    0.0015512137564487
 146    -0.0011462116021999
 147    -0.00018278068253164
 148    -0.00036347406031145
 149    4.3344494358539e-05
 150    0.00017520953287633
 151    -0.00055128046694062
 Sym= A
 Ene= -2.640463884e-17
 Spin= Alpha
 Occup=   -0.00000
   1    0.00019683293528178
   2    0.00026468151575719
   3    -2.3977046787257e-05
   4    0.00055168220267417
   5    0.00016640463946584
   6     -0.00032510095244
   7    0.00020673989151469
   8    -0.00014477232619085
   9    -1.2500709310075e-05
  10    -0.00038959071108988
  11    -0.0018097280282886
  12     0.000740778195379
  13    -0.0024459403152651
  14    -0.00015004293353361
  15    2.8014231349954e-06
  16    7.5924222528096e-05
  17    1.2973457782488e-05
  18    -5.5516275853626e-05
  19    -0.0002056460312674
  20    -9.0285596329546e-05
  21    -6.8651306664467e-05
  22    -0.0003817330555656
  23    -0.00012869344967905
  24    -0.079462432527988
  25     0.037372710282421
  26     0.044018413338753
  27     0.012406696143757
  28     0.061236195204596
  29    -0.037067356497278
  30    -0.080698685404895
  31     0.044580836562866
  32    -0.026290285153849
  33    -0.060677713013118
  34     0.011235761660161
  35    -0.0082716539968033
  36    -0.022164741692109
  37    0.0001604841074326
  38    -0.00027443046710284
  39    -0.00032386237921756
  40    0.00099642671940375
  41    0.00036070270317237
  42    0.0012395000887086
  43    -0.0012697504761238
  44    -0.0011619316832973
  45    0.00073309713187111
  46    0.0013438735907564
  47      0.19205101724491
  48    -0.032196403141296
  49    -0.042304536878492
  50    -0.012656664385514
  51    -0.039136885599676
  52     0.032979811226898
  53     0.055980033349399
  54    -0.032669231731298
  55     0.023624516553821
  56     0.040843242378825
  57    -0.013392522710056
  58    0.0070043184747202
  59     0.012852807378697
  60     0.001113805291064
  61    -0.00012164179285043
  62    0.00015432501645041
  63    0.00031702068030775
  64    0.00024983810849733
  65    0.0021505471601171
  66    -0.00012410577400413
  67    0.00022564664078093
  68    -0.0013506885726393
  69    0.00041873905107518
  70     0.086602214100544
  71    -0.0074082390547977
  72    -0.010912384944388
  73     -0.00171360364856
  74    0.0023908870226822
  75    -0.0025156140720542
  76    0.00048104685095724
  77    0.0039333309880053
  78    -0.0031775302484364
  79    0.0010689120369411
  80    0.0017188854011907
  81    -0.0021135666725013
  82    0.00080736261400878
  83    8.2853024990116e-05
  84    0.00013507118773961
  85    1.6702116255797e-05
  86    3.5265706403796e-05
  87    -8.3201416584614e-05
  88    0.0007128469718406
  89    4.5139040539672e-05
  90    -0.00062682375979167
  91    -0.0010486565989625
  92    0.00042823801189793
  93     0.086437747510201
  94      0.47118566480891
  95     -0.13117976974515
  96    0.0022696926048659
  97    0.0025339823154729
  98    -0.0006617251726924
  99    0.00044451108752814
 100      0.19003169909962
 101     -0.76521594630339
 102      -0.1455005096268
 103    -0.012951074336352
 104     0.085318314573046
 105     0.021425930130508
 106    -0.017248042243119
 107     0.030627704494365
 108    -0.013068567589315
 109     0.012267731745715
 110    -0.028470293464259
 111    0.0080126120785269
 112    -0.00020812934666686
 113    0.0022541920027657
 114    -0.00020379892957476
 115    -9.2695095719086e-05
 116    -0.00058547963250112
 117    -0.00043259591156771
 118     0.020115829024336
 119    -0.00086277459374153
 120    -0.0047563215429742
 121    0.0092014342470345
 122     0.013416010627739
 123    -0.0015387730354121
 124    -8.8952869278324e-05
 125    -0.00036688486227729
 126    -0.00086709730252052
 127    -0.00053475152396057
 128    0.0069392683372859
 129     0.001039100966351
 130    0.0015187091253967
 131    0.0026346851457946
 132    0.0050638238054306
 133    0.0021549896183398
 134    -0.00011104030477241
 135    -0.00036000881886898
 136    0.00015510224495509
 137    0.0015550994835386
 138    -0.0001221589379078
 139    0.00079725686042093
 140    -0.00028095374431167
 141    -0.00020997560737235
 142    -0.00018670195930691
 143    -0.0005826846655131
 144    0.00086379262091338
 145    -0.0010365959834614
 146    0.0010550605549442
 147    0.0006304674954767
 148    -0.00085426329112285
 149    -0.00017790549792062
 150    -0.00023784558448509
 151    0.0014024263398221
 Sym= A
 Ene= -3.69815245e-18
 Spin= Alpha
 Occup=   -0.00000
   1    0.00012838244411508
   2    0.00020870836278705
   3    0.00010434088880829
   4    -0.0028318026594276
   5    -1.8292865472595e-05
   6    -9.7440893317475e-05
   7    -0.00012980921462562
   8    -0.0015462421457232
   9    -3.9628970275481e-05
  10    -1.8859320271654e-05
  11     0.001654464175899
  12    0.00071443697274229
  13    0.0011992130805359
  14    2.4082182643836e-05
  15    -1.4985974533086e-05
  16    5.1571459964188e-05
  17    -3.9364396799107e-05
  18    1.1949783572384e-05
  19     6.70931203821e-05
  20    0.00056449530542242
  21    0.00024895682732845
  22    -8.6931815367456e-05
  23    0.00042533205713476
  24     0.038331001097932
  25    -0.0043045731440542
  26    -0.0052205720988039
  27    -0.0015898816274348
  28      -0.4154187447253
  29     0.009759199423835
  30    -0.0023549137687865
  31     -0.29667102546399
  32    0.0070993155840544
  33    -0.0015304515590511
  34    -0.066757290342394
  35    0.0019491488943292
  36    0.00060676947474273
  37    4.8360436213579e-05
  38    0.0018969881781704
  39    -0.00011424695624294
  40    -0.00017321654822538
  41    -0.0027575996397795
  42    3.9650384887058e-05
  43    0.0066896856701015
  44    -0.00025908479541807
  45    -0.00020944160490284
  46    -0.0077764797690816
  47     -0.15184214270355
  48     0.031774082064197
  49     0.041148109773063
  50     0.019092521656479
  51      0.18986938938726
  52      0.12370299755386
  53     -0.23305632534591
  54      0.14302101178985
  55     0.085937371430371
  56     -0.17098550271383
  57      0.05200790808514
  58     0.015590768791151
  59    -0.054638933790008
  60    -0.0034817015821497
  61    -0.00021328211435911
  62    0.00050193084145304
  63    0.00071044254080133
  64    0.0011481034751301
  65    -0.0060820552448835
  66    -0.00070400252511566
  67    0.0013573675109091
  68    0.0030321611620204
  69    0.0021041010708019
  70      0.19824200987496
  71    -0.025862542239887
  72    -0.035020128814737
  73      -0.0190488536801
  74      0.15911570741726
  75     -0.14340029561347
  76       0.2290531217724
  77      0.12001739055273
  78     -0.10019163809591
  79      0.16728646125079
  80     0.045507482091832
  81    -0.018291263108853
  82     0.052660331545104
  83    0.0031995385623613
  84    -0.00038721397748039
  85    -0.00062184255713638
  86    -0.00060959540090511
  87    0.0013115431887471
  88    0.0053856246969834
  89    -0.0008562036778132
  90    -0.0017273425644253
  91    -0.0022303835692957
  92    0.0027369540593531
  93     0.029640661057674
  94      0.16249391247965
  95    -0.062202665862713
  96    0.0024851647540273
  97    0.00072157921347744
  98    6.3931467751209e-05
  99    -0.00012814322471609
 100     0.031870558654135
 101    0.0046210013452222
 102      -0.1630312468553
 103    0.0038402317109746
 104     0.016144056923397
 105     0.024395970570966
 106     0.056919145431612
 107    0.0073637540596374
 108     0.010530537948942
 109    -0.034455862993935
 110    -0.007016065956842
 111    -0.010562259769945
 112    -0.0040208297670954
 113    0.00036582810461097
 114    0.00055495953547151
 115    0.0016852729095024
 116    -6.8207717289872e-05
 117    -4.6557145160784e-05
 118    -0.0031236719599097
 119     0.011680698546973
 120    -0.00092982549049263
 121     8.18911766219e-05
 122    -0.021860144056104
 123    0.00020045967936969
 124     0.001760950455262
 125    -0.0001055026614673
 126    6.2833090629026e-05
 127    0.00091182825783442
 128    -0.0012320714085908
 129    -0.0015005778879561
 130    4.3871588576182e-05
 131    -0.00043851916829307
 132    -0.0075295281964877
 133    -0.00037387542742721
 134    0.00016429008043466
 135    -8.5918566080366e-05
 136    5.4015110557059e-05
 137    -0.0023018270574887
 138    0.00032005571890134
 139    -0.0064319348028042
 140    -0.00043656660432309
 141    -0.00046374827755561