[Molden Format]
made by pyscf v[2.5.0]
[Atoms] (AU)
O   1   8     0.00000000000000     2.58468802468286     1.82716107203296
O   2   8     0.00000000000000    -2.58468802468286     1.82716107203296
O   3   8    -2.58492613017456     0.00000000000000    -1.82709871107085
O   4   8     2.58492613017456     0.00000000000000    -1.82709871107085
Fe   5   26     0.00000000000000     0.00000000000000    -0.00003779452249
[GTO]
1 0
 s    8 1.00
                 11720  0.00070964594651845
                  1759  0.0054672722921914
                 400.8   0.027823118610189
                 113.7    0.10474773971146
                 37.03    0.28292084635691
                 13.27    0.44849523869833
                 5.025    0.27081688521277
                 1.013    0.01545029160744
 s    8 1.00
                 11720  -0.00031444341168873
                  1759  -0.0024821376810179
                 400.8  -0.012316355381583
                 113.7  -0.050538917343672
                 37.03   -0.13938490331632
                 13.27   -0.32507749481778
                 5.025   -0.22984830758785
                 1.013     1.0953793467883
 s    1 1.00
                0.3023                   1
 s    1 1.00
               0.07896                   1
 p    3 1.00
                  17.7   0.062679166281506
                 3.854    0.33353656587936
                 1.046    0.74123964163973
 p    1 1.00
                0.2753                   1
 p    1 1.00
               0.06856                   1
 d    1 1.00
                 1.185                   1
 d    1 1.00
                 0.332                   1

2 0
 s    8 1.00
                 11720  0.00070964594651845
                  1759  0.0054672722921914
                 400.8   0.027823118610189
                 113.7    0.10474773971146
                 37.03    0.28292084635691
                 13.27    0.44849523869833
                 5.025    0.27081688521277
                 1.013    0.01545029160744
 s    8 1.00
                 11720  -0.00031444341168873
                  1759  -0.0024821376810179
                 400.8  -0.012316355381583
                 113.7  -0.050538917343672
                 37.03   -0.13938490331632
                 13.27   -0.32507749481778
                 5.025   -0.22984830758785
                 1.013     1.0953793467883
 s    1 1.00
                0.3023                   1
 s    1 1.00
               0.07896                   1
 p    3 1.00
                  17.7   0.062679166281506
                 3.854    0.33353656587936
                 1.046    0.74123964163973
 p    1 1.00
                0.2753                   1
 p    1 1.00
               0.06856                   1
 d    1 1.00
                 1.185                   1
 d    1 1.00
                 0.332                   1

3 0
 s    8 1.00
                 11720  0.00070964594651845
                  1759  0.0054672722921914
                 400.8   0.027823118610189
                 113.7    0.10474773971146
                 37.03    0.28292084635691
                 13.27    0.44849523869833
                 5.025    0.27081688521277
                 1.013    0.01545029160744
 s    8 1.00
                 11720  -0.00031444341168873
                  1759  -0.0024821376810179
                 400.8  -0.012316355381583
                 113.7  -0.050538917343672
                 37.03   -0.13938490331632
                 13.27   -0.32507749481778
                 5.025   -0.22984830758785
                 1.013     1.0953793467883
 s    1 1.00
                0.3023                   1
 s    1 1.00
               0.07896                   1
 p    3 1.00
                  17.7   0.062679166281506
                 3.854    0.33353656587936
                 1.046    0.74123964163973
 p    1 1.00
                0.2753                   1
 p    1 1.00
               0.06856                   1
 d    1 1.00
                 1.185                   1
 d    1 1.00
                 0.332                   1

4 0
 s    8 1.00
                 11720  0.00070964594651845
                  1759  0.0054672722921914
                 400.8   0.027823118610189
                 113.7    0.10474773971146
                 37.03    0.28292084635691
                 13.27    0.44849523869833
                 5.025    0.27081688521277
                 1.013    0.01545029160744
 s    8 1.00
                 11720  -0.00031444341168873
                  1759  -0.0024821376810179
                 400.8  -0.012316355381583
                 113.7  -0.050538917343672
                 37.03   -0.13938490331632
                 13.27   -0.32507749481778
                 5.025   -0.22984830758785
                 1.013     1.0953793467883
 s    1 1.00
                0.3023                   1
 s    1 1.00
               0.07896                   1
 p    3 1.00
                  17.7   0.062679166281506
                 3.854    0.33353656587936
                 1.046    0.74123964163973
 p    1 1.00
                0.2753                   1
 p    1 1.00
               0.06856                   1
 d    1 1.00
                 1.185                   1
 d    1 1.00
                 0.332                   1

5 0
 s   19 1.00
               4316265  8.0488023199039e-06
              646342.4  6.2583054711947e-05
              147089.7  0.00032902387219861
              41661.52  0.0013873548827733
              13590.77  0.0050232555755522
               4905.75   0.016101398639487
              1912.746   0.045900336121579
              792.6043    0.11361539039989
              344.8065    0.22838688070209
              155.8999    0.32211587278232
              72.23091    0.23836607985889
              32.72506   0.074046663743311
              15.66762   0.092141962214321
              7.503483   0.093397892108199
              3.312223   0.015739648670054
              1.558471  -0.00041866816462398
              0.683914  5.3763175457196e-05
              0.146757  -3.8166536775059e-05
              0.070583  4.3196026350084e-05
 s   19 1.00
               4316265  -4.1559369962002e-06
              646342.4  -3.2313877789452e-05
              147089.7  -0.00016995180465104
              41661.52  -0.00071713396588372
              13590.77  -0.0026036143474475
               4905.75  -0.0083990746356235
              1912.746  -0.024340990410105
              792.6043   -0.06251922420585
              344.8065   -0.13659234113955
              155.8999   -0.23126975377185
              72.23091   -0.23837242471164
              32.72506   0.031238242190359
              15.66762    0.50867971876342
              7.503483    0.49876745931891
              3.312223   0.090335150398436
              1.558471  -0.0060053124295769
              0.683914  0.00023124445387536
              0.146757  -0.00056436569092716
              0.070583  0.00049922395745117
 s   19 1.00
               4316265  9.5392794968425e-07
              646342.4  7.4201288995743e-06
              147089.7  3.9012973126954e-05
              41661.52  0.00016483791324274
              13590.77  0.00059904395703174
               4905.75  0.0019438370854879
              1912.746   0.005691474006023
              792.6043   0.015024474939216
              344.8065   0.034550270877518
              155.8999   0.065006594024135
              72.23091    0.07721942584146
              32.72506  -0.018748066959575
              15.66762   -0.30114268504749
              7.503483   -0.45580542340238
              3.312223    0.12874214182054
              1.558471    0.71886675886813
              0.683914    0.40547615588353
              0.146757    0.02169842334627
              0.070583  -0.0083497819778808
 s   19 1.00
               4316265  -2.7855316684837e-07
              646342.4  -2.1659942913938e-06
              147089.7  -1.1393815969693e-05
              41661.52  -4.8110671166032e-05
              13590.77  -0.00017498931033188
               4905.75  -0.00056730298734717
              1912.746  -0.0016634190856823
              792.6043  -0.0043867862458281
              344.8065  -0.010118228343349
              155.8999  -0.019039595468327
              72.23091  -0.022840460969647
              32.72506  0.0056966075590623
              15.66762   0.092272032737637
              7.503483    0.14828220074088
              3.312223  -0.054130717799492
              1.558471   -0.29363940203754
              0.683914   -0.33284949014195
              0.146757    0.36880606827045
              0.070583    0.77615453677882
 s   19 1.00
               4316265  -4.0457736469034e-07
              646342.4  -3.2182147037811e-06
              147089.7  -1.6378172028258e-05
              41661.52  -7.2229167603371e-05
              13590.77  -0.00024863317185672
               4905.75  -0.00086224981539081
              1912.746  -0.0023285468621802
              792.6043  -0.0067893875672321
              344.8065    -0.0137857032153
              155.8999  -0.030900463570667
              72.23091  -0.026550287703751
              32.72506  -0.0098488093433088
              15.66762    0.18182680231062
              7.503483    0.15435236850623
              3.312223   0.055554043395676
              1.558471   -0.96380941837406
              0.683914    0.26103022908272
              0.146757     1.8507028943296
              0.070583   -0.94179895310717
 s    1 1.00
              0.031449                   1
 s    1 1.00
               0.01401                   1
 p   15 1.00
              17745.69  4.0999986375771e-05
              4200.721  0.00036899987738194
              1364.429   0.002128999292537
              522.0806  0.0093689968866974
              221.4595   0.033096989001924
              100.9096   0.094430968620741
              48.40115    0.20807693085637
              23.98536    0.33233288956632
               12.1825    0.33298688934899
              6.242298    0.15684294788134
              3.110944   0.021548992839304
              1.509958  -0.0020949993038351
              0.710845  -0.0017389994221333
               0.27319  -0.00029999990031052
              0.104233  2.899999036335e-05
 p   15 1.00
              17745.69  -1.5001690667838e-05
              4200.721  -0.0001300146524546
              1364.429  -0.00075108464610309
              522.0806  -0.0033293752155489
              221.4595  -0.011913342615686
              100.9096  -0.034936937339972
              48.40115  -0.079998015655313
              23.98536   -0.13465117498367
               12.1825    -0.1386136215454
              6.242298   0.030281412669387
              3.110944    0.33325355717162
              1.509958    0.45620441354709
              0.710845    0.28508312843719
               0.27319   0.046149200945115
              0.104233  -0.0032493661986537
 p   15 1.00
              17745.69  4.2059051436175e-06
              4200.721  4.0657083054969e-05
              1364.429  0.00023132478289896
              522.0806  0.0010290447918051
              221.4595  0.0036815689690465
              100.9096   0.010830205744815
              48.40115   0.024861105303923
              23.98536   0.042136159697141
               12.1825   0.043592804845214
              6.242298  -0.014086978294356
              3.110944   -0.12380221987076
              1.509958   -0.18200914312166
              0.710845   -0.10786324134483
               0.27319    0.29814399791561
              0.104233    0.80341340250219
 p   15 1.00
              17745.69  5.2179925883807e-06
              4200.721  4.3831137742398e-05
              1364.429  0.00025150724275995
              522.0806  0.0011323043916786
              221.4595  0.0039980259212173
              100.9096   0.011921025867415
              48.40115   0.026916492967903
              23.98536   0.046771998365209
               12.1825   0.046542406691321
              6.242298  -0.011664300632066
              3.110944   -0.14415643764068
              1.509958   -0.19649394690065
              0.710845    -0.1120814371999
               0.27319    0.46425836736896
              0.104233    0.66815247135846
 p    1 1.00
              0.038291                   1
 p    1 1.00
               0.01407                   1
 d    7 1.00
               113.344  0.0035858865538461
               33.6414   0.026192209321351
                12.331    0.10068824060359
               4.99478     0.2428579762288
                2.0728    0.36285413346948
              0.830753    0.36792211874346
              0.309178    0.24020462334533
 d    7 1.00
               113.344  -0.0050113538596978
               33.6414   -0.03664085513561
                12.331   -0.14483843267146
               4.99478   -0.35331590629798
                2.0728   -0.40650711182833
              0.830753   0.073571570070304
              0.309178    0.72607174312111
 d    1 1.00
               0.10013                   1
 d    1 1.00
               0.03243                   1
 f    2 1.00
                3.2243    0.42224911271107
                0.7758    0.77146820592821
 f    1 1.00
                0.2749                   1

[5d]
[7f]
[9g]

[MO]
 Sym= A
 Ene= -1.227270756e-16
 Spin= Alpha
 Occup=   -0.00000
   1    0.00031119587317357
   2    0.00053145300368589
   3    0.00051386455190185
   4    -0.0023085789645165
   5    0.0013065161585085
   6    -9.783230062899e-05
   7    -0.00046938795465951
   8    -0.0012670085796314
   9    0.0001323267630271
  10    6.2759373609552e-05
  11    -0.011225152195099
  12    6.5474014281393e-05
  13    0.0027775620327395
  14    0.00011968049388192
  15    3.531614353363e-05
  16    6.7652848645002e-05
  17    -9.5527971318268e-05
  18    -0.00037293994196924
  19    0.00031503465942885
  20    -0.00062906781095817
  21    0.0003192797592959
  22    0.00031226900779465
  23    -0.00085262945048844
  24      0.33580079642663
  25    -0.037637000897477
  26    -0.047629893490042
  27    -0.012667636680313
  28      0.13857552134279
  29     0.036746416613523
  30     0.057658051221427
  31      0.10550896926149
  32     0.025299102420948
  33     0.044319477627356
  34      0.03223783501288
  35    0.0077548835394877
  36     0.017033613659336
  37    -6.9676965155559e-05
  38    -0.00065924270112356
  39    0.00033444952540128
  40    -0.00088556168713126
  41    0.00067320965332949
  42    -0.00093593165818797
  43    -0.0047134597583546
  44    0.0011685765065137
  45    -0.00055600222983091
  46    0.0042815117287998
  47      0.55022746316578
  48    -0.068943109856573
  49    -0.089470808416843
  50    -0.026132070567578
  51    0.0064273187604883
  52      0.20337870628874
  53     0.022210285726706
  54    0.0015011733956276
  55      0.14915323943806
  56     0.010903627485798
  57    -0.0025379856522463
  58     0.041562876326224
  59    0.0013991730638306
  60    0.0011278674149438
  61    -0.0005455499353348
  62    0.00084122066419911
  63    0.0013347675146131
  64    0.0013745530051356
  65    -8.7274072999399e-05
  66    -0.0021177013867686
  67    0.0043290405150964
  68    0.0014030331230473
  69    0.0046264409481798
  70     -0.37040198680216
  71     0.094945599714683
  72      0.11749119899167
  73     0.032276308159403
  74    -0.059478905796224
  75     -0.24351596261513
  76    -0.059653826652353
  77    -0.048843754779307
  78     -0.17669269954262
  79    -0.041387003119422
  80    -0.020231511964707
  81    -0.047623945640637
  82    -0.012272795491159
  83    -0.0021526370780042
  84    -0.000827601782953
  85    -0.0010472662755846
  86    -0.0013708472158356
  87    0.0016935436176031
  88    -0.0024115279604865
  89    -0.001581120782265
  90    -0.004049874486632
  91    0.0006562813032649
  92    0.0049428540742571
  93     0.025613677143318
  94      0.13995041964615
  95    -0.060459787582376
  96    0.0057825290905903
  97    0.0012458876825803
  98    0.00059057754453105
  99    -0.00042569003990166
 100     -0.19100068203694
 101      0.10603400162757
 102      0.03562226360007
 103      0.01425143224859
 104     0.006374208989124
 105     0.017548297810171
 106    -0.079127730089064
 107    -0.013822494473419
 108     0.020982619518557
 109     0.054370861869646
 110    0.0099224187838892
 111    -0.018850677998316
 112    -0.0040704142725929
 113    -0.0014500898803242
 114    0.00042261231099076
 115    0.00048581316708159
 116    0.00038789563600096
 117    0.00030081467504714
 118    -0.014262635196173
 119    -0.0061059732083827
 120    0.0022980334959426
 121    -0.0021938083475838
 122     0.070572126655066
 123    0.0011165076186267
 124    -0.00067823305956377
 125    0.00020553921100374
 126    0.0008619670987967
 127    -0.0029644830824201
 128    -0.0062323758839763
 129    0.0070069693198701
 130    -0.0016046611489515
 131    -0.0019238962010215
 132     0.030429398334659
 133    -0.0019209648549435
 134    -0.00063902176031341
 135    0.00021852439783894
 136    -2.964922955171e-05
 137    0.0094254475619305
 138    0.00074632534684591
 139    0.0015591475958023
 140    -0.00087865059481514
 141    -0.00035788786565146
 142    0.0020970868644085
 143    -0.0010884002805016
 144    -0.00061732424048554
 145     0.001313008193865
 146     0.002386766536042
 147    -0.00027664254826514
 148    -0.00033812194908208
 149     0.002047509881327
 150     0.001042555000408
 151    -0.00096987357730616
 Sym= A
 Ene= -6.906484836e-17
 Spin= Alpha
 Occup=   -0.00000
   1    -0.00020526674530845
   2    -0.00034459993071542
   3    -0.00032732841869451
   4    0.00060301893158117
   5    0.00078496616290313
   6    8.9394647521027e-05
   7    0.00025223593331043
   8    -0.0023505577495833
   9    -4.6261856216236e-05
  10    -7.4733495797752e-05
  11    -0.0063840170346963
  12    0.0001309290420983
  13    -0.0012793318375358
  14    -5.8079953044681e-05
  15    5.9136273807622e-07
  16    -4.3689140781317e-05
  17    5.1216253328143e-05
  18    -0.00024256736670577
  19    -0.00013798312930763
  20    0.00017313298604465
  21    -0.00011126257579068
  22    -0.00016215988359223
  23    -0.00014228271355452
  24     -0.19442895812199
  25     0.018853363224189
  26      0.02438505573022
  27      0.00651844433494
  28     -0.21190156428612
  29    -0.018207037694153
  30    -0.029718236668397
  31     -0.14725146306493
  32    -0.012356895469239
  33    -0.023014560112314
  34    -0.027516146193208
  35    -0.0037977360740708
  36    -0.0087050154888697
  37    4.7848863633668e-05
  38    0.00097868827213632
  39    -0.00017776903950996
  40    0.0004389015849651
  41    -0.0016042737314199
  42    0.00052324383928221
  43    0.0019882537088762
  44    -0.00069213875773166
  45    0.00027714399842413
  46    -0.0029834322030243
  47    -0.010389123347913
  48    -0.031103032714216
  49    -0.035835660649426
  50    -0.0044953601436302
  51      0.10386468638348
  52      0.25108241183902
  53     -0.13604713801398
  54     0.076022765767518
  55      0.17958092874954
  56     -0.10080174734548
  57     0.026072537476579
  58     0.042836981791886
  59    -0.032938650934554
  60    -0.0012955273629974
  61    -0.00046023554964721
  62    0.0010429483434645
  63    0.0014355659229253
  64    0.0019317707592356
  65     -0.00292612443663
  66    -0.0010568494746684
  67    0.0037157384848786
  68    0.0019768194487308
  69    0.0048768434071645
  70      -0.1717833125436
  71       0.0217360328013
  72     0.027622123659883
  73    0.0025806048864681
  74      0.13428796376186
  75     -0.23613176815655
  76      0.15505084803206
  77     0.098623276443018
  78     -0.16954449737299
  79      0.11660197033284
  80     0.034326184422264
  81    -0.040487684576302
  82     0.038452191761601
  83    0.0017454205960773
  84    -0.00041489311931414
  85    -0.00097124916511713
  86    -0.0014154544256256
  87     0.001824609669354
  88    0.0040436882344198
  89    -0.0016075002695771
  90    -0.0039958475747681
  91    -0.0027421743806592
  92    0.0049107325574042
  93    -0.019522617135432
  94     -0.10631429748357
  95     0.039331538043901
  96    -0.0037811650950402
  97    -0.0010098743711758
  98    -0.00033029255965945
  99    0.00020588832589534
 100      0.59957764227019
 101    -0.066487171505503
 102     0.058967673424833
 103    -0.034290971061118
 104    -0.0041516545630727
 105    -0.015154371552289
 106    -0.011804528550763
 107    0.0084679504425942
 108    -0.0098544759455801
 109     0.014326139653599
 110    -0.0060464393391099
 111     0.009454960082017
 112    -0.005737962766826
 113    0.0008606772737104
 114    -8.6832763038577e-05
 115    0.0015756028856305
 116    -0.00021557299137395
 117    -0.00017345019159365
 118    0.0072682132877975
 119    0.0082356792257553
 120    -0.0009071009740022
 121    0.0012327498509121
 122     0.034604998192624
 123    -0.00058351612513514
 124    0.0014234420867168
 125    -5.9913934002183e-05
 126    -0.0004180684104118
 127    -0.0013685019392212
 128    0.0030962546286231
 129    0.0032049865013109
 130    0.00090635228308462
 131    0.00082668974534577
 132     0.014612965378758
 133    0.00095232867239254
 134    -0.00031538927878375
 135    -0.0001354677665741
 136    2.9353213233781e-05
 137    0.0045155316218159
 138    -0.00040135658153289
 139    -0.0038847975610924
 140    0.00047656934321456
 141    0.00011522450594098
 142    0.0048333079353686
 143     0.002968098485982
 144    0.00026915624127986
 145    -0.00059386934533266
 146    -0.0053070814737292
 147    0.00012715519803084
 148    0.00019106311382813
 149    0.0046526216919859
 150    0.0034393945160444
 151    0.00050474850984022
 Sym= A
 Ene= -2.20622588e-18
 Spin= Alpha
 Occup=   -0.00000
   1    5.1442125610421e-05
   2    0.00013217244791235
   3    -0.00029613082493723
   4    -0.025766819966821
   5    -3.6755752303056e-05
   6    6.4138984077599e-05
   7    -0.00065861384475675
   8    -5.0436083274561e-05
   9    -2.271024035546e-05
  10    -0.00049224433363378
  11    0.00067908167888528
  12    0.0064499703053089
  13     0.010147346410686
  14    0.00023953627554841
  15    -3.6357273490639e-07
  16    0.00016277447618568
  17    -0.00020615370517844
  18    1.6990875218741e-05
  19    0.00074846734532405
  20    5.1571182383607e-05
  21    0.0022540035601618
  22    -0.00050996544691841
  23    5.8854619688071e-05
  24      -0.1065919594366
  25    -0.040933532068337
  26    -0.041792668165969
  27    -0.012389675558493
  28    -0.056891860003971
  29     0.079683939975354
  30    0.0048534046327912
  31    -0.040820993185928
  32     0.060085894948515
  33    0.0026653680475844
  34    -0.0095131718158862
  35     0.016895629421764
  36     0.010152829873299
  37    0.0004170261117815
  38    0.00025390905591822
  39    -0.00078355300806965
  40    -0.0015618130946033
  41    -0.00035978387909979
  42    0.00049485118410191
  43    0.00095929486118728
  44    -0.002710090413976
  45    -0.001683827665406
  46    -0.0010979570531066
  47     -0.54697328638757
  48     0.056209103016573
  49      0.07572326103935
  50     0.013874592281654
  51      0.14372831953723
  52    -0.094340967370858
  53    -0.052214450407821
  54      0.11350907045366
  55    -0.068689745899797
  56    -0.038316328708265
  57     0.033732283775543
  58     -0.01365518684338
  59      -0.0153426991107
  60    -0.0019984359219524
  61    0.0011683923765453
  62    -0.00058597331691442
  63    0.00027672101138741
  64    -0.00083636000907906
  65    -0.0044267066158785
  66    0.0022822860804379
  67    -0.0020134005723402
  68    0.0050740951767338
  69    -0.0031816899240786
  70     -0.51438246442097
  71     0.045986297035644
  72     0.062586390385035
  73    0.0077800404067936
  74     -0.10278706912422
  75     -0.11110210789469
  76      0.00645333022616
  77    -0.082369398651435
  78    -0.079796225752673
  79    0.0045127397988528
  80    -0.021770202866926
  81    -0.014521174095415
  82    -0.0019915071928552
  83    -0.0011223165785917
  84    -0.0013040657330779
  85    -0.00066611568361162
  86    0.00024073170672231
  87    0.0010401907182814
  88    -0.0029449097807799
  89    -0.0025562431671383
  90    -0.0020933365144665
  91    0.0045416931324437
  92    0.0034323901048223
  93     0.060016252887297
  94      0.33666719310528
  95     -0.21546176653314
  96    0.0027681516591525
  97    -0.0017593362032906
  98    0.00021281715366519
  99    -0.0010958737610951
 100     -0.15860066514133
 101      0.23789714827171
 102    -0.019528292854218
 103     0.011178039231676
 104     0.048819709389664
 105     0.065005195281482
 106     0.010371236306679
 107     0.055355136244825
 108     0.081128210828628
 109    -0.0072292284135594
 110    -0.047397575634385
 111    -0.070468649402828
 112    -0.00031593942128441
 113     0.003255382816053
 114    0.0053172049031818
 115    0.00018483126456464
 116    -0.00049418039529638
 117    -0.00043347146326957
 118    -0.026920572415251
 119    0.00078066627781169
 120    -0.0009614290724875
 121    -0.0021236699677321
 122    -0.0063784815778349
 123    0.0016087395345462
 124    0.00010312136492526
 125    9.3326998628151e-06
 126    0.00088337716346273
 127    0.00024541935959144
 128    -0.010944601306277
 129    -0.00037594246204337
 130    0.0011251289260583
 131    -0.0056887044448226
 132    -0.0021053413870428
 133    -0.0033688784204347
 134    4.8124283796321e-05
 135    -0.00075848500206947
 136    0.00046987546029506
 137    -0.00064036044997117
 138    0.0016887217446099
 139    -0.00080599119283879
 140    -0.0021098509786005
 141    -0.0037233292145603
 142    0.00051507101665853
 143    0.00059795726471209
 144    -0.00098408607428135
 145    0.0038550410238013
 146    -0.0010541633464216
 147    -0.00023747992003068
 148    -0.0025187997121111
 149    0.0004959246969985
 150    0.00043482460304235
 151    0.00010477621993162
 Sym= A
 Ene=  1.21235663e-18
 Spin= Alpha
 Occup=    0.00000
   1    -8.6566602422053e-05
   2    -0.00013886080464041
   3    4.804795993176e-05
   4    0.0025716085085769
   5    2.3472994168593e-13
   6    6.1505832322348e-05
   7    8.3118548411564e-05
   8    -2.6580404481891e-13
   9    -3.9887178727786e-05
  10    2.2023643213055e-05
  11    -2.0654726373654e-12
  12    -0.00069722364144048
  13    -0.00086468182630742
  14    -1.2395261498021e-05
  15    7.6588122713959e-14
  16    -3.3408929456946e-05
  17    2.4423811633442e-05
  18    -1.4252070331903e-13
  19    -5.0579547731722e-05
  20    -2.8408991420441e-13
  21    -0.00019451341719205
  22    7.608792162285e-05
  23    1.466774755889e-13
  24    -0.017654527344079
  25    0.0017891419167646
  26    0.0020997061387477
  27    0.00081202503501289
  28    1.4336548187486e-11
  29    -0.0056105798075586
  30    0.0051522129718646
  31    1.1072810516988e-11
  32    -0.0041383338373464
  33    0.0037445235767781
  34    4.0996739003807e-12
  35    -0.0010634924469556
  36    0.00045460175107705
  37    -4.9954253620986e-05
  38    -4.2464015332739e-13
  39    9.3863379953279e-05
  40    8.4413358884682e-05
  41    -6.43690768255e-14
  42    -0.00010008283433635
  43    -1.2090889848106e-12
  44    0.00025894485107334
  45    0.00011362952820121
  46    -1.6127391938018e-13
  47    0.0040682233058152
  48    -0.0026317786337378
  49    -0.0031566589042336
  50    -9.7781312770926e-05
  51    -0.011233028369843
  52    0.0083467399613062
  53    7.801557057653e-05
  54    -0.0085226150116038
  55    0.0060704219688031
  56    0.00020534940570728
  57     -0.00224429818734
  58    0.0011229535534411
  59    0.00040610693143825
  60    0.00010134229012102
  61    -0.00010228051436585
  62     5.15283867905e-05
  63    -5.1103261395489e-05
  64    7.0982516525136e-05
  65    0.00024111135703697
  66    -0.00016828645942685
  67    0.00018210344930555
  68    -0.00035132620351169
  69    0.00029317546504383
  70    0.0040682231547224
  71    -0.0026317785876914
  72    -0.0031566588480672
  73    -9.778129409591e-05
  74     0.011233028336664
  75    0.0083467398989106
  76    7.8015528666521e-05
  77    0.0085226149858528
  78    0.0060704219234344
  79    0.00020534937857413
  80    0.0022442981750593
  81    0.0011229535425564
  82    0.00040610692425109
  83    0.00010134228895201
  84    0.00010228051430455
  85    5.1528386305248e-05
  86    -5.1103262372206e-05
  87    -7.0982515828872e-05
  88    0.00024111135682659
  89    0.00016828645799541
  90    0.00018210344800293
  91    -0.00035132620409727
  92    -0.00029317546343326
  93     -0.97099010666429
  94       0.2295807712287
  95     0.040712536668647
  96    -0.0018847900250673
  97    -0.00026449690535068
  98    -3.9363871057362e-05
  99    9.8504098174318e-05
 100    2.6811444959697e-11
 101     0.024515310498208
 102      0.02366600621387
 103    -4.1275469658158e-12
 104    -0.014812679977247
 105    -0.011731691046837
 106    -1.9677956889871e-11
 107    -0.0074848965625156
 108    -0.0072707369487417
 109    1.4687278115771e-11
 110    0.0069041838977362
 111    0.0068220159016122
 112    1.7256647493543e-13
 113    -0.00043852952058021
 114    -0.00050490444385673
 115    -4.4783136518132e-13
 116    8.4481408457673e-05
 117    7.2995088644971e-05
 118    0.0011175824087733
 119    1.1975244628878e-11
 120    0.00062290945283491
 121    -0.0006808750247832
 122    5.0507890039575e-12
 123    -1.1890092442651e-05
 124    -2.3785611349606e-12
 125    5.540482885138e-05
 126    7.6791222875062e-05
 127    -2.3147136076598e-13
 128    0.00063927910275675
 129    2.177433473655e-12
 130    -0.0001500021457579
 131    0.00033920373326154
 132    4.7720064532579e-12
 133     0.000193240905802
 134    3.5127538074127e-14
 135    9.066373784992e-05
 136    -5.4379612517685e-05
 137    1.3841842515814e-12
 138    -0.00022106323575062
 139    -1.4607373874732e-12
 140    0.00032496284827273
 141    0.00039144863613539
 142    1.0826616545926e-12